 Gaussian 16, Revision A.03,

 ----------------------------------------------------------------------
 #p b3lyp/6-31G(d) opt=(MaxStep=10,MaxCycles=1000) freq scf=(MaxCycle=2
 000,NoVarAcc,NoIncFock) scrf=(iefpcm,read,solvent=water)
 ----------------------------------------------------------------------

 ------------
 57.n.pdb.xyz
 ------------
 Symbolic Z-matrix:
 Charge =  0 Multiplicity = 1

 SCF Done:  E(RB3LYP) =  -845.751070843     A.U. after   12 cycles
 SCF Done:  E(RB3LYP) =  -845.754866755     A.U. after   10 cycles
 SCF Done:  E(RB3LYP) =  -845.752202170     A.U. after   11 cycles
 SCF Done:  E(RB3LYP) =  -845.756205821     A.U. after   10 cycles
 SCF Done:  E(RB3LYP) =  -845.757232895     A.U. after   11 cycles
 SCF Done:  E(RB3LYP) =  -845.757536570     A.U. after   11 cycles
 SCF Done:  E(RB3LYP) =  -845.758128030     A.U. after   10 cycles
 SCF Done:  E(RB3LYP) =  -845.758998708     A.U. after   13 cycles
 SCF Done:  E(RB3LYP) =  -845.759587347     A.U. after   13 cycles
 SCF Done:  E(RB3LYP) =  -845.760518520     A.U. after   10 cycles
 SCF Done:  E(RB3LYP) =  -845.762362476     A.U. after    8 cycles
 SCF Done:  E(RB3LYP) =  -845.762352837     A.U. after    9 cycles
 SCF Done:  E(RB3LYP) =  -845.762367473     A.U. after    8 cycles
 SCF Done:  E(RB3LYP) =  -845.762363149     A.U. after    7 cycles
 SCF Done:  E(RB3LYP) =  -845.762366602     A.U. after    7 cycles
 SCF Done:  E(RB3LYP) =  -845.762366425     A.U. after    7 cycles
 SCF Done:  E(RB3LYP) =  -845.762366381     A.U. after    5 cycles
 Optimization completed.
    -- Stationary point found.
 Normal termination of Gaussian 16 at Wed Mar  2 05:18:47 2022.

 --------------------------------------------------------------------
 #P Geom=AllCheck Guess=TCheck SCRF=Check GenChk RB3LYP/6-31G(d) Freq
 --------------------------------------------------------------------

 Structure from the checkpoint file:  "57.n.pdb.xyz.mst.wat.chk"
 ------------
 57.n.pdb.xyz
 ------------
 Charge =  0 Multiplicity = 1

 SCF Done:  E(RB3LYP) =  -845.762366381     A.U. after    1 cycles

  Exact polarizability: 245.959   7.195 271.688  -4.347  28.490 236.779
 Approx polarizability: 259.838   2.491 301.201  -7.241  39.546 271.834

                      1                      2                      3
                      A                      A                      A
 Frequencies --     21.1330                27.1742                36.9223
 Red. masses --      2.7516                 3.8402                 4.0724
 Frc consts  --      0.0007                 0.0017                 0.0033
 IR Inten    --      0.7785                 0.1081                 1.9888

                      4                      5                      6
                      A                      A                      A
 Frequencies --     46.0036                61.3215                61.9214
 Red. masses --      4.0845                 4.7576                 4.2029
 Frc consts  --      0.0051                 0.0105                 0.0095
 IR Inten    --      1.8677                 0.2855                 0.6192

                      7                      8                      9
                      A                      A                      A
 Frequencies --    106.6261               109.6872               169.9487
 Red. masses --      2.0894                 2.7686                 3.3320
 Frc consts  --      0.0140                 0.0196                 0.0567
 IR Inten    --      0.8007                 4.1369                 3.1966

                     10                     11                     12
                      A                      A                      A
 Frequencies --    176.9785               226.2895               228.9713
 Red. masses --      3.9235                 3.4827                 2.5236
 Frc consts  --      0.0724                 0.1051                 0.0780
 IR Inten    --      1.4823                 2.1837                 0.5289

                     13                     14                     15
                      A                      A                      A
 Frequencies --    242.6890               256.4427               269.3461
 Red. masses --      1.1752                 2.4153                 1.6039
 Frc consts  --      0.0408                 0.0936                 0.0686
 IR Inten    --      2.3658                 0.4192                 4.7591

                     16                     17                     18
                      A                      A                      A
 Frequencies --    285.7234               314.1478               326.2442
 Red. masses --      2.1522                 1.9072                 2.2200
 Frc consts  --      0.1035                 0.1109                 0.1392
 IR Inten    --      0.0314                 1.8876                 0.0436

                     19                     20                     21
                      A                      A                      A
 Frequencies --    346.4810               364.2957               386.1463
 Red. masses --      4.0633                 2.5432                 2.7924
 Frc consts  --      0.2874                 0.1989                 0.2453
 IR Inten    --      2.9407                10.0688                 4.0420

                     22                     23                     24
                      A                      A                      A
 Frequencies --    415.5468               416.6414               436.4682
 Red. masses --      3.3628                 3.1387                 2.3672
 Frc consts  --      0.3421                 0.3210                 0.2657
 IR Inten    --      4.1150                 0.9683                 0.6620

                     25                     26                     27
                      A                      A                      A
 Frequencies --    478.3970               489.7995               516.7489
 Red. masses --      3.6395                 3.5434                 3.2551
 Frc consts  --      0.4908                 0.5008                 0.5121
 IR Inten    --      2.2869                 5.9948                 4.8468

                     28                     29                     30
                      A                      A                      A
 Frequencies --    560.2333               609.2410               631.7742
 Red. masses --      3.9912                 3.7010                 6.1817
 Frc consts  --      0.7381                 0.8094                 1.4537
 IR Inten    --     12.0393                23.0564                 7.8845

                     31                     32                     33
                      A                      A                      A
 Frequencies --    635.3122               652.8190               718.7318
 Red. masses --      6.1677                 4.9661                 1.8814
 Frc consts  --      1.4667                 1.2470                 0.5726
 IR Inten    --      4.9732                19.6017                45.2837

                     34                     35                     36
                      A                      A                      A
 Frequencies --    735.9151               770.9326               777.9609
 Red. masses --      5.6105                 1.8119                 1.6248
 Frc consts  --      1.7902                 0.6345                 0.5794
 IR Inten    --      5.4372                21.5701                42.3436

                     37                     38                     39
                      A                      A                      A
 Frequencies --    808.0202               828.3689               867.7842
 Red. masses --      2.9400                 1.2217                 1.9301
 Frc consts  --      1.1309                 0.4939                 0.8564
 IR Inten    --     24.3503                 2.9701                 6.7114

                     40                     41                     42
                      A                      A                      A
 Frequencies --    867.9721               871.3195               923.6719
 Red. masses --      1.7114                 2.3809                 1.3986
 Frc consts  --      0.7596                 1.0650                 0.7031
 IR Inten    --     21.8311                30.1784                 3.8344

                     43                     44                     45
                      A                      A                      A
 Frequencies --    931.0394               943.0157               982.4192
 Red. masses --      1.8739                 1.6873                 1.3453
 Frc consts  --      0.9571                 0.8841                 0.7650
 IR Inten    --      4.6367                 7.4373                 0.0681

                     46                     47                     48
                      A                      A                      A
 Frequencies --    986.9745              1007.3258              1013.3497
 Red. masses --      1.4126                 1.2487                 7.1837
 Frc consts  --      0.8108                 0.7465                 4.3462
 IR Inten    --      0.2602                 0.6202                18.6968

                     49                     50                     51
                      A                      A                      A
 Frequencies --   1016.7553              1022.8061              1052.1893
 Red. masses --      6.1106                 1.3007                 2.5994
 Frc consts  --      3.7219                 0.8017                 1.6956
 IR Inten    --      2.6403                 0.2102                44.5735

                     52                     53                     54
                      A                      A                      A
 Frequencies --   1056.1922              1069.2527              1075.6536
 Red. masses --      2.3996                 1.6934                 2.8940
 Frc consts  --      1.5772                 1.1407                 1.9728
 IR Inten    --     15.6170                24.1683                11.1858

                     55                     56                     57
                      A                      A                      A
 Frequencies --   1081.3773              1088.1372              1102.2568
 Red. masses --      2.6305                 2.5163                 1.9203
 Frc consts  --      1.8124                 1.7554                 1.3746
 IR Inten    --     69.9058                17.8403                51.2155

                     58                     59                     60
                      A                      A                      A
 Frequencies --   1110.7199              1116.8860              1122.7600
 Red. masses --      1.9883                 1.9496                 1.8711
 Frc consts  --      1.4452                 1.4329                 1.3897
 IR Inten    --     74.2595                17.3192                50.0398

                     61                     62                     63
                      A                      A                      A
 Frequencies --   1131.3673              1134.0952              1161.0344
 Red. masses --      1.3116                 1.9689                 2.5290
 Frc consts  --      0.9891                 1.4920                 2.0086
 IR Inten    --     14.6392                58.5891               130.5335

                     64                     65                     66
                      A                      A                      A
 Frequencies --   1187.1489              1192.8181              1199.8203
 Red. masses --      1.0902                 1.1652                 1.5865
 Frc consts  --      0.9052                 0.9768                 1.3456
 IR Inten    --      0.8762                 7.6417                20.2808

                     67                     68                     69
                      A                      A                      A
 Frequencies --   1209.2863              1228.4249              1250.4894
 Red. masses --      1.1419                 1.6584                 3.4316
 Frc consts  --      0.9838                 1.4745                 3.1616
 IR Inten    --      4.7244                13.5470                66.1556

                     70                     71                     72
                      A                      A                      A
 Frequencies --   1261.7449              1290.4280              1308.7899
 Red. masses --      3.7819                 1.5747                 2.4768
 Frc consts  --      3.5473                 1.5449                 2.4997
 IR Inten    --     23.2685                13.3461                23.5337

                     73                     74                     75
                      A                      A                      A
 Frequencies --   1319.4153              1334.0644              1338.3958
 Red. masses --      5.9377                 1.1506                 1.5187
 Frc consts  --      6.0902                 1.2065                 1.6028
 IR Inten    --      0.7728                11.5550                 8.7346

                     76                     77                     78
                      A                      A                      A
 Frequencies --   1349.3449              1363.3798              1377.9673
 Red. masses --      2.4776                 2.0914                 1.3844
 Frc consts  --      2.6579                 2.2904                 1.5488
 IR Inten    --      6.0599                 0.5298                18.1190

                     79                     80                     81
                      A                      A                      A
 Frequencies --   1424.1487              1451.3043              1463.2816
 Red. masses --      1.2508                 1.4066                 1.1723
 Frc consts  --      1.4946                 1.7456                 1.4790
 IR Inten    --     18.5651                 0.9908                 4.5936

                     82                     83                     84
                      A                      A                      A
 Frequencies --   1476.9470              1488.4035              1492.0355
 Red. masses --      2.0534                 1.1941                 2.2056
 Frc consts  --      2.6390                 1.5586                 2.8929
 IR Inten    --     31.5237                 0.1414                17.8687

                     85                     86                     87
                      A                      A                      A
 Frequencies --   1504.4066              1510.7762              1511.9998
 Red. masses --      1.0460                 1.0867                 1.0539
 Frc consts  --      1.3949                 1.4614                 1.4195
 IR Inten    --     11.2369                 6.2179                12.7975

                     88                     89                     90
                      A                      A                      A
 Frequencies --   1517.2299              1519.4470              1519.7517
 Red. masses --      1.7526                 1.0573                 1.0920
 Frc consts  --      2.3770                 1.4382                 1.4860
 IR Inten    --     24.6676                12.0218                 7.7623

                     91                     92                     93
                      A                      A                      A
 Frequencies --   1522.8171              1531.8845              1542.4343
 Red. masses --      1.1745                 1.0520                 2.1391
 Frc consts  --      1.6047                 1.4545                 2.9985
 IR Inten    --      3.6579                10.2463                22.0108

                     94                     95                     96
                      A                      A                      A
 Frequencies --   1549.9935              1631.9579              1640.8343
 Red. masses --      1.0890                 5.5820                 5.7186
 Frc consts  --      1.5414                 8.7591                 9.0712
 IR Inten    --      6.1685                24.3545                 0.5905

                     97                     98                     99
                      A                      A                      A
 Frequencies --   1644.8677              1661.3271              2952.4174
 Red. masses --      5.2418                 5.6021                 1.0704
 Frc consts  --      8.3559                 9.1099                 5.4974
 IR Inten    --     77.3342                 4.5940                62.8995

                    100                    101                    102
                      A                      A                      A
 Frequencies --   2956.8443              2964.7736              3048.3261
 Red. masses --      1.0599                 1.0631                 1.0545
 Frc consts  --      5.4596                 5.5055                 5.7732
 IR Inten    --     62.7029               286.2943                58.0939

                    103                    104                    105
                      A                      A                      A
 Frequencies --   3081.4764              3085.6182              3094.7239
 Red. masses --      1.0743                 1.0594                 1.0718
 Frc consts  --      6.0100                 5.9431                 6.0480
 IR Inten    --     30.4472                26.8381                38.5211

                    106                    107                    108
                      A                      A                      A
 Frequencies --   3098.7291              3103.6183              3140.9799
 Red. masses --      1.0721                 1.0949                 1.1047
 Frc consts  --      6.0652                 6.2140                 6.4210
 IR Inten    --     61.5767               120.5455                50.6594

                    109                    110                    111
                      A                      A                      A
 Frequencies --   3143.0805              3156.6183              3164.0435
 Red. masses --      1.1032                 1.1036                 1.1024
 Frc consts  --      6.4211                 6.4787                 6.5022
 IR Inten    --     60.8646                40.0867                31.6599

                    112                    113                    114
                      A                      A                      A
 Frequencies --   3186.3355              3197.0313              3203.1227
 Red. masses --      1.0895                 1.0852                 1.0881
 Frc consts  --      6.5175                 6.5353                 6.5778
 IR Inten    --     46.2700                 4.8655                 6.4133

                    115                    116                    117
                      A                      A                      A
 Frequencies --   3211.9038              3217.7196              3223.0009
 Red. masses --      1.0927                 1.0887                 1.0971
 Frc consts  --      6.6417                 6.6411                 6.7148
 IR Inten    --     62.8165                14.4151                42.8607

                    118                    119                    120
                      A                      A                      A
 Frequencies --   3233.9866              3248.0018              3253.1344
 Red. masses --      1.0956                 1.0931                 1.0910
 Frc consts  --      6.7513                 6.7946                 6.8027
 IR Inten    --     31.0158                11.8974                 9.6104

 - Thermochemistry -
 -------------------
 Temperature   298.150 Kelvin.  Pressure   1.00000 Atm.
 Atom     1 has atomic number  6 and mass  12.00000

 Molecular mass:   270.17321 amu.
 Principal axes and moments of inertia in atomic units:
                           1         2         3
     Eigenvalues --  4264.460588048.94783**********
           X            0.99983  -0.01786  -0.00346
           Y            0.01789   0.99980   0.00859
           Z            0.00330  -0.00865   0.99996
 This molecule is an asymmetric top.
 Rotational symmetry number  1.
 Warning -- assumption of classical behavior for rotation
           may cause significant error
 Rotational temperatures (Kelvin)      0.02031     0.01076     0.00839
 Rotational constants (GHZ):           0.42321     0.22422     0.17476
 Zero-point vibrational energy     951429.6 (Joules/Mol)
                                  227.39714 (Kcal/Mol)
 Warning -- explicit consideration of  29 degrees of freedom as
           vibrations may cause significant error
 Vibrational temperatures:     30.41    39.10    53.12    66.19    88.23
          (Kelvin)             89.09   153.41   157.82   244.52   254.63
                              325.58   329.44   349.18   368.96   387.53
                              411.09   451.99   469.39   498.51   524.14
                              555.58   597.88   599.45   627.98   688.31
                              704.71   743.49   806.05   876.56   908.98
                              914.07   939.26  1034.09  1058.82  1109.20
                             1119.31  1162.56  1191.84  1248.55  1248.82
                             1253.63  1328.96  1339.56  1356.79  1413.48
                             1420.04  1449.32  1457.98  1462.88  1471.59
                             1513.87  1519.63  1538.42  1547.63  1555.86
                             1565.59  1585.90  1598.08  1606.95  1615.40
                             1627.79  1631.71  1670.47  1708.04  1716.20
                             1726.27  1739.89  1767.43  1799.18  1815.37
                             1856.64  1883.06  1898.34  1919.42  1925.65
                             1941.41  1961.60  1982.59  2049.03  2088.10
                             2105.34  2125.00  2141.48  2146.71  2164.51
                             2173.67  2175.43  2182.96  2186.15  2186.58
                             2190.99  2204.04  2219.22  2230.09  2348.02
                             2360.79  2366.60  2390.28  4247.87  4254.24
                             4265.65  4385.86  4433.56  4439.52  4452.62
                             4458.38  4465.41  4519.17  4522.19  4541.67
                             4552.35  4584.43  4599.81  4608.58  4621.21
                             4629.58  4637.18  4652.99  4673.15  4680.53

 Zero-point correction=                           0.362380 (Hartree/Particle)
 Thermal correction to Energy=                    0.381674
 Thermal correction to Enthalpy=                  0.382619
 Thermal correction to Gibbs Free Energy=         0.312580
 Sum of electronic and zero-point Energies=           -845.399986
 Sum of electronic and thermal Energies=              -845.380692
 Sum of electronic and thermal Enthalpies=            -845.379748
 Sum of electronic and thermal Free Energies=         -845.449787

                     E (Thermal)             CV                S
                      KCal/Mol        Cal/Mol-Kelvin    Cal/Mol-Kelvin
 Total                  239.504             73.813            147.409
 Electronic               0.000              0.000              0.000
 Translational            0.889              2.981             42.681
 Rotational               0.889              2.981             34.227
 Vibrational            237.727             67.851             70.502
 Vibration     1          0.593              1.985              6.525
 Vibration     2          0.593              1.984              6.026
 Vibration     3          0.594              1.982              5.418
 Vibration     4          0.595              1.979              4.982
 Vibration     5          0.597              1.973              4.414
 Vibration     6          0.597              1.972              4.395
 Vibration     7          0.605              1.944              3.329
 Vibration     8          0.606              1.941              3.274
 Vibration     9          0.625              1.879              2.436
 Vibration    10          0.628              1.871              2.360
 Vibration    11          0.650              1.801              1.908
 Vibration    12          0.652              1.797              1.887
 Vibration    13          0.659              1.775              1.783
 Vibration    14          0.666              1.752              1.686
 Vibration    15          0.674              1.730              1.600
 Vibration    16          0.684              1.700              1.499
 Vibration    17          0.702              1.647              1.340
 Vibration    18          0.710              1.623              1.279
 Vibration    19          0.724              1.582              1.182
 Vibration    20          0.738              1.546              1.104
 Vibration    21          0.755              1.500              1.015
 Vibration    22          0.779              1.436              0.907
 Vibration    23          0.780              1.434              0.903
 Vibration    24          0.797              1.391              0.838
 Vibration    25          0.835              1.298              0.714
 Vibration    26          0.846              1.273              0.684
 Vibration    27          0.872              1.213              0.618
 Vibration    28          0.916              1.117              0.523
 Vibration    29          0.968              1.012              0.434

                           ! Non-Optimized Parameters !
 Normal termination of Gaussian 16 at Wed Mar  2 06:13:28 2022.

 ------------------------------------------
 #p b3lyp/6-31G(d) geom=allcheck guess=read
 ------------------------------------------

 Structure from the checkpoint file:  "57.n.pdb.xyz.mst.wat.chk"
 ------------
 57.n.pdb.xyz
 ------------
 Charge =  0 Multiplicity = 1

 SCF Done:  E(RB3LYP) =  -845.750678239     A.U. after   11 cycles
 Normal termination of Gaussian 16 at Wed Mar  2 06:16:57 2022.
 Gaussian 16:  ES64L-G16RevA.03 25-Dec-2016

 ----------------------------------------------------------------------
 #p b3lyp/6-31G(d) scrf=(iefpcm,read,solvent=water) geom=allcheck guess
 =read
 ----------------------------------------------------------------------

 Structure from the checkpoint file:  "57.n.pdb.xyz.mst.wat.chk"
 ------------
 57.n.pdb.xyz
 ------------
 Charge =  0 Multiplicity = 1

                         Standard orientation:
 ---------------------------------------------------------------------
 Center     Atomic      Atomic             Coordinates (Angstroms)
 Number     Number       Type             X           Y           Z
 ---------------------------------------------------------------------
      1          6           0        4.764550   -1.025396    1.071431
      2          7           0        4.213869   -0.451867   -0.153506
      3          6           0        5.091632   -0.745346   -1.281709
      4          6           0        2.853830   -0.919529   -0.416800
      5          6           0        1.829041   -0.257835    0.497896
      6          8           0        0.560265   -0.805032    0.154127
      7          6           0       -0.585396   -0.155661    0.719304
      8          6           0       -0.527100   -0.228343    2.251946
      9          6           0       -1.809136   -0.932603    0.215186
     10          6           0       -1.677325   -2.015145   -0.660109
     11          6           0       -2.804460   -2.714734   -1.099021
     12          6           0       -4.078417   -2.340795   -0.671783
     13          6           0       -4.218404   -1.257924    0.199865
     14          6           0       -3.093356   -0.560870    0.637988
     15          6           0       -0.661904    1.290303    0.188641
     16          7           0       -0.583387    1.412722   -1.149336
     17          6           0       -0.647072    2.639581   -1.676432
     18          6           0       -0.798656    3.802073   -0.918173
     19          6           0       -0.882143    3.672342    0.464258
     20          6           0       -0.809249    2.397255    1.027723
     21          1           0        4.838956   -2.127543    1.026736
     22          1           0        5.767801   -0.623524    1.239826
     23          1           0        4.144630   -0.761890    1.931759
     24          1           0        6.089425   -0.347100   -1.078168
     25          1           0        4.704483   -0.267867   -2.186158
     26          1           0        5.192577   -1.828134   -1.480434
     27          1           0        2.598247   -0.663418   -1.449549
     28          1           0        2.768354   -2.017966   -0.324096
     29          1           0        1.843216    0.827085    0.342797
     30          1           0        2.055089   -0.449775    1.552662
     31          1           0       -0.405040   -1.272295    2.550196
     32          1           0       -1.446923    0.149427    2.701870
     33          1           0        0.310263    0.348199    2.650982
     34          1           0       -0.689919   -2.307427   -0.991709
     35          1           0       -2.682296   -3.553631   -1.777001
     36          1           0       -4.953142   -2.884602   -1.013347
     37          1           0       -5.203568   -0.954445    0.539184
     38          1           0       -3.218231    0.281193    1.311609
     39          1           0       -0.576902    2.698870   -2.759955
     40          1           0       -0.848836    4.770936   -1.401669
     41          1           0       -0.997855    4.544522    1.098839
     42          1           0       -0.864432    2.269408    2.101231
 ---------------------------------------------------------------------

 SCF Done:  E(RB3LYP) =  -845.760383408     A.U. after   11 cycles

 The electronic state is 1-A.
 Alpha  occ. eigenvalues --  -19.15085 -14.33389 -14.32771 -10.25626 -10.23045
 Alpha  occ. eigenvalues --  -10.22571 -10.22556 -10.20861 -10.20410 -10.19899
 Alpha  occ. eigenvalues --  -10.19847 -10.19791 -10.19790 -10.19787 -10.19026
 Alpha  occ. eigenvalues --  -10.18956 -10.18909 -10.18835 -10.18505 -10.17855
 Alpha  occ. eigenvalues --   -1.03629  -0.94395  -0.91964  -0.85655  -0.80404
 Alpha  occ. eigenvalues --   -0.80346  -0.75715  -0.74486  -0.73741  -0.72061
 Alpha  occ. eigenvalues --   -0.70135  -0.66286  -0.63773  -0.62800  -0.60662
 Alpha  occ. eigenvalues --   -0.60132  -0.57784  -0.56590  -0.52600  -0.51754
 Alpha  occ. eigenvalues --   -0.49542  -0.48665  -0.48103  -0.46848  -0.45760
 Alpha  occ. eigenvalues --   -0.45617  -0.44938  -0.44460  -0.43677  -0.43280
 Alpha  occ. eigenvalues --   -0.42117  -0.41689  -0.40520  -0.39914  -0.38871
 Alpha  occ. eigenvalues --   -0.38513  -0.38407  -0.38063  -0.37021  -0.36472
 Alpha  occ. eigenvalues --   -0.36114  -0.35646  -0.34413  -0.34234  -0.33329
 Alpha  occ. eigenvalues --   -0.31095  -0.28933  -0.26887  -0.26019  -0.25808
 Alpha  occ. eigenvalues --   -0.25033  -0.24249  -0.21833
 Alpha virt. eigenvalues --   -0.03055  -0.01758  -0.00296   0.00485   0.08515
 Alpha virt. eigenvalues --    0.09108   0.10662   0.11213   0.11708   0.13263
 Alpha virt. eigenvalues --    0.13622   0.14285   0.14661   0.14858   0.15031

 Mulliken charges:
               1
     1  C   -0.313350
     2  N   -0.409101
     3  C   -0.302948
     4  C   -0.136669
     5  C   -0.024904
     6  O   -0.540500
     7  C    0.265622
     8  C   -0.497332
     9  C    0.109997
    10  C   -0.194703
    11  C   -0.153451
    12  C   -0.147389
    13  C   -0.157826
    14  C   -0.195662
    15  C    0.264853
    16  N   -0.498089
    17  C    0.026353
    18  C   -0.148565
    19  C   -0.113825
    20  C   -0.182226
    21  H    0.127366
    22  H    0.157684
    23  H    0.162047
    24  H    0.155596
    25  H    0.158151
    26  H    0.126563
    27  H    0.153020
    28  H    0.124412
    29  H    0.139211
    30  H    0.143173
    31  H    0.165941
    32  H    0.168161
    33  H    0.167538
    34  H    0.153565
    35  H    0.147371
    36  H    0.147443
    37  H    0.149020
    38  H    0.147569
    39  H    0.158317
    40  H    0.163124
    41  H    0.169784
    42  H    0.164657
 Sum of Mulliken charges =  -0.00000

 Dipole moment (field-independent basis, Debye):
    X=              0.3363    Y=              2.6408    Z=              2.4074  Tot=              3.5892
 Quadrupole moment (field-independent basis, Debye-Ang):
   XX=           -109.9019   YY=           -104.8133   ZZ=           -112.5816
   XY=             -5.8828   XZ=             -2.0977   YZ=              2.9983

 Normal termination of Gaussian 16 at Wed Mar  2 06:21:11 2022.
