 Gaussian 16, Revision A.03,

 ----------------------------------------------------------------------
 #p b3lyp/6-31G(d) opt=(MaxStep=10,MaxCycles=1000) freq scf=(MaxCycle=2
 000,NoVarAcc,NoIncFock) scrf=(iefpcm,read,solvent=water)
 ----------------------------------------------------------------------

 ------------
 58.n.pdb.xyz
 ------------
 Symbolic Z-matrix:
 Charge =  0 Multiplicity = 1

 SCF Done:  E(RB3LYP) =  -827.549505122     A.U. after   12 cycles
 SCF Done:  E(RB3LYP) =  -827.553446092     A.U. after   10 cycles
 SCF Done:  E(RB3LYP) =  -827.552611427     A.U. after   10 cycles
 SCF Done:  E(RB3LYP) =  -827.555158739     A.U. after   10 cycles
 SCF Done:  E(RB3LYP) =  -827.555275654     A.U. after   10 cycles
 SCF Done:  E(RB3LYP) =  -827.555403046     A.U. after   10 cycles
 SCF Done:  E(RB3LYP) =  -827.555607883     A.U. after    9 cycles
 SCF Done:  E(RB3LYP) =  -827.555579858     A.U. after    9 cycles
 SCF Done:  E(RB3LYP) =  -827.555583399     A.U. after    8 cycles
 SCF Done:  E(RB3LYP) =  -827.555564407     A.U. after    9 cycles
 SCF Done:  E(RB3LYP) =  -827.555608492     A.U. after    7 cycles
 SCF Done:  E(RB3LYP) =  -827.555582639     A.U. after    9 cycles
 SCF Done:  E(RB3LYP) =  -827.555583364     A.U. after    6 cycles
 SCF Done:  E(RB3LYP) =  -827.555606762     A.U. after    8 cycles
 SCF Done:  E(RB3LYP) =  -827.555608393     A.U. after    7 cycles
 SCF Done:  E(RB3LYP) =  -827.555582854     A.U. after    9 cycles
 SCF Done:  E(RB3LYP) =  -827.555583346     A.U. after    6 cycles
 Optimization completed on the basis of negligible forces.
    -- Stationary point found.
 Normal termination of Gaussian 16 at Wed Mar  2 05:20:19 2022.

 --------------------------------------------------------------------
 #P Geom=AllCheck Guess=TCheck SCRF=Check GenChk RB3LYP/6-31G(d) Freq
 --------------------------------------------------------------------

 Structure from the checkpoint file:  "58.n.pdb.xyz.mst.wat.chk"
 ------------
 58.n.pdb.xyz
 ------------
 Charge =  0 Multiplicity = 1

 SCF Done:  E(RB3LYP) =  -827.555583346     A.U. after    1 cycles

  Exact polarizability: 314.385 -20.391 305.055   6.355  -2.367 137.097
 Approx polarizability: 331.721 -19.840 349.981   7.753  -3.867 152.737

                      1                      2                      3
                      A                      A                      A
 Frequencies --     24.1477                39.3899                41.6516
 Red. masses --      5.1339                 3.6023                 4.0277
 Frc consts  --      0.0018                 0.0033                 0.0041
 IR Inten    --      1.0982                 0.4587                 2.4158

                      4                      5                      6
                      A                      A                      A
 Frequencies --     63.1742                66.3511               113.3700
 Red. masses --      3.8633                 3.1023                 3.8234
 Frc consts  --      0.0091                 0.0080                 0.0290
 IR Inten    --      1.9737                 3.0715                 1.1480

                      7                      8                      9
                      A                      A                      A
 Frequencies --    122.9521               151.7225               171.9132
 Red. masses --      3.8620                 4.4232                 3.3962
 Frc consts  --      0.0344                 0.0600                 0.0591
 IR Inten    --      0.2591                 4.6667                 2.3176

                     10                     11                     12
                      A                      A                      A
 Frequencies --    184.2512               196.4296               233.7376
 Red. masses --      4.1432                 2.4849                 1.6980
 Frc consts  --      0.0829                 0.0565                 0.0547
 IR Inten    --      0.3819                 1.1686                 0.2353

                     13                     14                     15
                      A                      A                      A
 Frequencies --    250.7259               270.9731               272.7908
 Red. masses --      1.6992                 1.9909                 1.6853
 Frc consts  --      0.0629                 0.0861                 0.0739
 IR Inten    --      1.7930                 0.1438                 0.0827

                     16                     17                     18
                      A                      A                      A
 Frequencies --    318.3447               348.6841               396.0411
 Red. masses --      3.2655                 3.4898                 2.4063
 Frc consts  --      0.1950                 0.2500                 0.2224
 IR Inten    --      5.7807                 2.3616                 3.2809

                     19                     20                     21
                      A                      A                      A
 Frequencies --    431.4984               438.1430               459.5633
 Red. masses --      3.2380                 2.4672                 3.6984
 Frc consts  --      0.3552                 0.2790                 0.4602
 IR Inten    --      3.5413                 1.0587                 3.6599

                     22                     23                     24
                      A                      A                      A
 Frequencies --    475.8578               481.1621               505.6141
 Red. masses --      3.2087                 3.5058                 3.0686
 Frc consts  --      0.4281                 0.4782                 0.4622
 IR Inten    --      8.2829                 1.7271                 6.8257

                     25                     26                     27
                      A                      A                      A
 Frequencies --    516.7669               549.0343               556.9048
 Red. masses --      4.1284                 1.5979                 4.1232
 Frc consts  --      0.6496                 0.2838                 0.7534
 IR Inten    --      0.6051                83.5102                 4.5096

                     28                     29                     30
                      A                      A                      A
 Frequencies --    582.0634               585.6109               640.4012
 Red. masses --      1.9581                 3.3546                 5.0049
 Frc consts  --      0.3909                 0.6778                 1.2094
 IR Inten    --     89.6951                 5.9864                11.2602

                     31                     32                     33
                      A                      A                      A
 Frequencies --    649.6590               749.9692               751.1250
 Red. masses --      3.4949                 2.0785                 2.4524
 Frc consts  --      0.8691                 0.6888                 0.8152
 IR Inten    --      3.4300                11.2389                15.6893

                     34                     35                     36
                      A                      A                      A
 Frequencies --    790.5356               801.6678               808.3232
 Red. masses --      1.7176                 5.1715                 1.8572
 Frc consts  --      0.6324                 1.9582                 0.7150
 IR Inten    --     57.3400                 4.4075                76.9904

                     37                     38                     39
                      A                      A                      A
 Frequencies --    820.4237               847.7394               871.7443
 Red. masses --      1.4886                 2.0419                 1.4791
 Frc consts  --      0.5904                 0.8646                 0.6623
 IR Inten    --    120.2599                27.9128                 0.2376

                     40                     41                     42
                      A                      A                      A
 Frequencies --    880.4840               892.8632               904.1919
 Red. masses --      4.2750                 1.5695                 2.9844
 Frc consts  --      1.9527                 0.7372                 1.4376
 IR Inten    --      8.3151                 3.7359                90.2544

                     43                     44                     45
                      A                      A                      A
 Frequencies --    943.3932               947.9499               968.1216
 Red. masses --      1.3263                 1.5067                 1.3195
 Frc consts  --      0.6955                 0.7977                 0.7286
 IR Inten    --      2.7527                18.6812                 0.6591

                     46                     47                     48
                      A                      A                      A
 Frequencies --    969.1315               976.6794               977.6816
 Red. masses --      1.4036                 1.4012                 1.6081
 Frc consts  --      0.7767                 0.7875                 0.9056
 IR Inten    --      1.9676                 1.2592                 4.3206

                     49                     50                     51
                      A                      A                      A
 Frequencies --   1001.9882              1013.7452              1048.2770
 Red. masses --      1.2718                 5.6760                 2.4286
 Frc consts  --      0.7523                 3.4368                 1.5724
 IR Inten    --      0.0334                36.4806                31.2934

                     52                     53                     54
                      A                      A                      A
 Frequencies --   1064.5244              1099.0907              1107.5068
 Red. masses --      2.2842                 2.3582                 2.0808
 Frc consts  --      1.5251                 1.6784                 1.5037
 IR Inten    --     21.6230                58.2216                40.6937

                     55                     56                     57
                      A                      A                      A
 Frequencies --   1111.4324              1126.9385              1149.8812
 Red. masses --      2.9476                 2.6188                 2.8937
 Frc consts  --      2.1453                 1.9595                 2.2543
 IR Inten    --     67.7159               160.5951                61.3964

                     58                     59                     60
                      A                      A                      A
 Frequencies --   1168.4797              1174.3243              1184.1667
 Red. masses --      2.0590                 1.3175                 1.1318
 Frc consts  --      1.6563                 1.0704                 0.9351
 IR Inten    --     23.4368                 6.4293                10.4079

                     61                     62                     63
                      A                      A                      A
 Frequencies --   1194.8684              1207.5502              1209.1566
 Red. masses --      2.1551                 1.9486                 1.4717
 Frc consts  --      1.8128                 1.6741                 1.2678
 IR Inten    --     20.7091                71.5538                17.7737

                     64                     65                     66
                      A                      A                      A
 Frequencies --   1247.4260              1257.7550              1273.5006
 Red. masses --      2.2102                 1.1938                 1.7126
 Frc consts  --      2.0263                 1.1127                 1.6364
 IR Inten    --     10.3144                32.9688               119.2164

                     67                     68                     69
                      A                      A                      A
 Frequencies --   1287.1477              1304.1722              1313.8964
 Red. masses --      1.1744                 2.5281                 1.1247
 Frc consts  --      1.1463                 2.5335                 1.1439
 IR Inten    --     27.1767               306.3606                20.7851

                     70                     71                     72
                      A                      A                      A
 Frequencies --   1339.0192              1379.5123              1391.2356
 Red. masses --      1.2113                 1.3377                 2.2294
 Frc consts  --      1.2796                 1.4999                 2.5423
 IR Inten    --    110.8943                26.1963                15.0318

                     73                     74                     75
                      A                      A                      A
 Frequencies --   1395.4243              1402.7220              1408.8474
 Red. masses --      1.6422                 1.3399                 1.3311
 Frc consts  --      1.8840                 1.5534                 1.5566
 IR Inten    --     43.0380                46.4974                12.2926

                     76                     77                     78
                      A                      A                      A
 Frequencies --   1422.0534              1430.0011              1439.4947
 Red. masses --      5.6587                 1.3559                 1.3188
 Frc consts  --      6.7421                 1.6337                 1.6101
 IR Inten    --     26.4964                14.2062                 7.1195

                     79                     80                     81
                      A                      A                      A
 Frequencies --   1440.7749              1480.6333              1487.8642
 Red. masses --      1.9412                 1.9240                 1.8451
 Frc consts  --      2.3742                 2.4851                 2.4066
 IR Inten    --    144.4786                16.8636                40.9497

                     82                     83                     84
                      A                      A                      A
 Frequencies --   1500.0062              1504.6425              1511.4942
 Red. masses --      1.1048                 1.7420                 1.0519
 Frc consts  --      1.4646                 2.3237                 1.4159
 IR Inten    --     15.9324                74.7890                 1.6455

                     85                     86                     87
                      A                      A                      A
 Frequencies --   1514.4539              1519.8311              1523.9030
 Red. masses --      1.1339                 1.2917                 1.0870
 Frc consts  --      1.5323                 1.7580                 1.4873
 IR Inten    --      0.3241                 1.0957                 2.9203

                     88                     89                     90
                      A                      A                      A
 Frequencies --   1531.9784              1541.7900              1564.6036
 Red. masses --      1.0608                 1.1598                 3.4180
 Frc consts  --      1.4668                 1.6243                 4.9299
 IR Inten    --     14.7090                16.3840                44.0981

                     91                     92                     93
                      A                      A                      A
 Frequencies --   1630.7502              1652.2609              1682.2028
 Red. masses --      6.7600                 5.1145                 6.3454
 Frc consts  --     10.5919                 8.2265                10.5796
 IR Inten    --    127.0904                32.7355                15.5472

                     94                     95                     96
                      A                      A                      A
 Frequencies --   2963.4098              2986.8434              3013.6450
 Red. masses --      1.0821                 1.0825                 1.0698
 Frc consts  --      5.5991                 5.6898                 5.7243
 IR Inten    --    122.9801                87.5807               107.7148

                     97                     98                     99
                      A                      A                      A
 Frequencies --   3045.4370              3056.6787              3062.5843
 Red. masses --      1.0557                 1.0363                 1.0369
 Frc consts  --      5.7686                 5.7045                 5.7301
 IR Inten    --     59.7126                43.9615                17.8472

                    100                    101                    102
                      A                      A                      A
 Frequencies --   3093.8699              3106.3377              3120.0266
 Red. masses --      1.1081                 1.0929                 1.1028
 Frc consts  --      6.2491                 6.2134                 6.3251
 IR Inten    --     46.5890                76.1364                56.8590

                    103                    104                    105
                      A                      A                      A
 Frequencies --   3129.3191              3134.9718              3144.0828
 Red. masses --      1.1023                 1.1012                 1.1009
 Frc consts  --      6.3596                 6.3767                 6.4117
 IR Inten    --     54.2558                57.4869                65.4947

                    106                    107                    108
                      A                      A                      A
 Frequencies --   3195.3248              3201.2500              3207.4018
 Red. masses --      1.0870                 1.0866                 1.0895
 Frc consts  --      6.5388                 6.5607                 6.6035
 IR Inten    --      6.1257                 4.2898                27.9119

                    109                    110                    111
                      A                      A                      A
 Frequencies --   3217.3516              3220.6117              3239.0771
 Red. masses --      1.0947                 1.0946                 1.0934
 Frc consts  --      6.6764                 6.6894                 6.7588
 IR Inten    --     60.9930                52.9917                21.6319

                    112                    113                    114
                      A                      A                      A
 Frequencies --   3248.2079              3484.4752              3529.3432
 Red. masses --      1.0914                 1.0744                 1.0649
 Frc consts  --      6.7845                 7.6855                 7.8150
 IR Inten    --     17.5010                 5.0978               295.9102

 - Thermochemistry -
 -------------------
 Temperature   298.150 Kelvin.  Pressure   1.00000 Atm.
 Atom     1 has atomic number  6 and mass  12.00000

 Molecular mass:   259.15723 amu.
 Principal axes and moments of inertia in atomic units:
                           1         2         3
     Eigenvalues --  1750.57718********************
           X            1.00000  -0.00047   0.00014
           Y            0.00047   0.99996   0.00865
           Z           -0.00015  -0.00865   0.99996
 This molecule is an asymmetric top.
 Rotational symmetry number  1.
 Warning -- assumption of classical behavior for rotation
           may cause significant error
 Rotational temperatures (Kelvin)      0.04948     0.00609     0.00557
 Rotational constants (GHZ):           1.03094     0.12693     0.11601
 Zero-point vibrational energy     907263.0 (Joules/Mol)
                                  216.84106 (Kcal/Mol)
 Warning -- explicit consideration of  29 degrees of freedom as
           vibrations may cause significant error
 Vibrational temperatures:     34.74    56.67    59.93    90.89    95.46
          (Kelvin)            163.11   176.90   218.29   247.34   265.10
                              282.62   336.30   360.74   389.87   392.49
                              458.03   501.68   569.81   620.83   630.39
                              661.21   684.65   692.28   727.47   743.51
                              789.94   801.26   837.46   842.56   921.39
                              934.71  1079.04  1080.70  1137.40  1153.42
                             1163.00  1180.41  1219.71  1254.25  1266.82
                             1284.63  1300.93  1357.33  1363.89  1392.91
                             1394.36  1405.22  1406.67  1441.64  1458.55
                             1508.24  1531.61  1581.35  1593.46  1599.10
                             1621.41  1654.42  1681.18  1689.59  1703.75
                             1719.15  1737.40  1739.71  1794.77  1809.63
                             1832.28  1851.92  1876.41  1890.40  1926.55
                             1984.81  2001.68  2007.70  2018.20  2027.02
                             2046.02  2057.45  2071.11  2072.95  2130.30
                             2140.70  2158.17  2164.84  2174.70  2178.96
                             2186.70  2192.56  2204.18  2218.29  2251.12
                             2346.29  2377.23  2420.31  4263.69  4297.40
                             4335.96  4381.70  4397.88  4406.38  4451.39
                             4469.33  4489.02  4502.39  4510.53  4523.63
                             4597.36  4605.88  4614.74  4629.05  4633.74
                             4660.31  4673.45  5013.38  5077.94

 Zero-point correction=                           0.345558 (Hartree/Particle)
 Thermal correction to Energy=                    0.363690
 Thermal correction to Enthalpy=                  0.364634
 Thermal correction to Gibbs Free Energy=         0.298002
 Sum of electronic and zero-point Energies=           -827.210025
 Sum of electronic and thermal Energies=              -827.191893
 Sum of electronic and thermal Enthalpies=            -827.190949
 Sum of electronic and thermal Free Energies=         -827.257581

                     E (Thermal)             CV                S
                      KCal/Mol        Cal/Mol-Kelvin    Cal/Mol-Kelvin
 Total                  228.219             70.425            140.239
 Electronic               0.000              0.000              0.000
 Translational            0.889              2.981             42.557
 Rotational               0.889              2.981             34.314
 Vibrational            226.442             64.464             63.368
 Vibration     1          0.593              1.985              6.260
 Vibration     2          0.594              1.981              5.290
 Vibration     3          0.594              1.981              5.179
 Vibration     4          0.597              1.972              4.355
 Vibration     5          0.598              1.970              4.259
 Vibration     6          0.607              1.938              3.210
 Vibration     7          0.610              1.930              3.053
 Vibration     8          0.619              1.901              2.651
 Vibration     9          0.626              1.877              2.414
 Vibration    10          0.631              1.861              2.285
 Vibration    11          0.636              1.845              2.166
 Vibration    12          0.654              1.789              1.850
 Vibration    13          0.663              1.762              1.725
 Vibration    14          0.675              1.727              1.590
 Vibration    15          0.676              1.723              1.578
 Vibration    16          0.705              1.639              1.319
 Vibration    17          0.726              1.578              1.172
 Vibration    18          0.763              1.479              0.977
 Vibration    19          0.793              1.402              0.854
 Vibration    20          0.798              1.387              0.832
 Vibration    21          0.817              1.340              0.767
 Vibration    22          0.832              1.304              0.721
 Vibration    23          0.837              1.292              0.707
 Vibration    24          0.861              1.238              0.644
 Vibration    25          0.872              1.213              0.618
 Vibration    26          0.904              1.142              0.546
 Vibration    27          0.912              1.125              0.530
 Vibration    28          0.939              1.070              0.482
 Vibration    29          0.943              1.062              0.475

 Optimization completed.
    -- Stationary point found.
 Normal termination of Gaussian 16 at Wed Mar  2 05:57:25 2022.

 ------------------------------------------
 #p b3lyp/6-31G(d) geom=allcheck guess=read
 ------------------------------------------

 Structure from the checkpoint file:  "58.n.pdb.xyz.mst.wat.chk"
 ------------
 58.n.pdb.xyz
 ------------
 Charge =  0 Multiplicity = 1

 SCF Done:  E(RB3LYP) =  -827.539935006     A.U. after   11 cycles
 Normal termination of Gaussian 16 at Wed Mar  2 05:59:54 2022.
 Gaussian 16:  ES64L-G16RevA.03 25-Dec-2016

 ----------------------------------------------------------------------
 #p b3lyp/6-31G(d) scrf=(iefpcm,read,solvent=water) geom=allcheck guess
 =read
 ----------------------------------------------------------------------

 Structure from the checkpoint file:  "58.n.pdb.xyz.mst.wat.chk"
 ------------
 58.n.pdb.xyz
 ------------
 Charge =  0 Multiplicity = 1

                         Standard orientation:
 ---------------------------------------------------------------------
 Center     Atomic      Atomic             Coordinates (Angstroms)
 Number     Number       Type             X           Y           Z
 ---------------------------------------------------------------------
      1          6           0       -6.613585   -0.979439   -0.443624
      2          6           0       -5.564580    0.114007   -0.239080
      3          6           0       -5.753813    0.808489    1.111957
      4          7           0       -4.221871   -0.494103   -0.329853
      5          6           0       -3.124505    0.455850   -0.530245
      6          6           0       -1.803017   -0.278068   -0.264037
      7          8           0       -1.894550   -0.976773    0.970902
      8          6           0       -0.637510    0.687480   -0.205950
      9          8           0        0.568508   -0.077574   -0.140649
     10          6           0        1.751437    0.595387   -0.085633
     11          6           0        1.864489    1.972158   -0.086123
     12          6           0        3.145050    2.575849   -0.030779
     13          6           0        4.289430    1.816812    0.023967
     14          6           0        4.203371    0.396837    0.027719
     15          6           0        5.358480   -0.428388    0.084196
     16          6           0        5.251050   -1.801897    0.087486
     17          6           0        3.977915   -2.417354    0.034937
     18          6           0        2.835843   -1.647520   -0.020821
     19          6           0        2.919460   -0.232218   -0.026496
     20          1           0       -6.511928   -1.448779   -1.428380
     21          1           0       -7.621176   -0.562748   -0.371558
     22          1           0       -6.508675   -1.758704    0.319068
     23          1           0       -5.695098    0.867653   -1.034942
     24          1           0       -5.678438    0.082284    1.928476
     25          1           0       -6.739232    1.282118    1.159912
     26          1           0       -5.004024    1.587043    1.279412
     27          1           0       -4.218819   -1.143472   -1.116825
     28          1           0       -3.117043    0.908757   -1.533046
     29          1           0       -3.232979    1.264774    0.198495
     30          1           0       -1.617521   -0.986908   -1.087578
     31          1           0       -2.840644   -1.238226    1.007306
     32          1           0       -0.624994    1.324381   -1.098157
     33          1           0       -0.721356    1.325802    0.680933
     34          1           0        0.981738    2.596455   -0.128822
     35          1           0        3.209077    3.659131   -0.032705
     36          1           0        5.267487    2.285218    0.065406
     37          1           0        6.333712    0.047681    0.125155
     38          1           0        6.143932   -2.416972    0.131072
     39          1           0        3.903184   -3.499785    0.038911
     40          1           0        1.857144   -2.110111   -0.060043
 ---------------------------------------------------------------------

 SCF Done:  E(RB3LYP) =  -827.553539020     A.U. after   11 cycles

 The electronic state is 1-A.
 Alpha  occ. eigenvalues --  -19.18273 -19.13288 -14.32434 -10.25277 -10.23939
 Alpha  occ. eigenvalues --  -10.23477 -10.21360 -10.20800 -10.20099 -10.19938
 Alpha  occ. eigenvalues --  -10.19310 -10.19195 -10.19102 -10.19092 -10.19032
 Alpha  occ. eigenvalues --  -10.18730 -10.18472 -10.17226 -10.16989  -1.07029
 Alpha  occ. eigenvalues --   -1.01153  -0.90502  -0.87237  -0.82021  -0.78793
 Alpha  occ. eigenvalues --   -0.77048  -0.74785  -0.74133  -0.71358  -0.68701
 Alpha  occ. eigenvalues --   -0.66882  -0.62249  -0.61906  -0.59280  -0.58356
 Alpha  occ. eigenvalues --   -0.57169  -0.53237  -0.51791  -0.51327  -0.50034
 Alpha  occ. eigenvalues --   -0.48409  -0.47730  -0.47105  -0.45804  -0.45080
 Alpha  occ. eigenvalues --   -0.43556  -0.43465  -0.42928  -0.42445  -0.40573
 Alpha  occ. eigenvalues --   -0.40374  -0.39327  -0.38623  -0.37797  -0.37593
 Alpha  occ. eigenvalues --   -0.37257  -0.35935  -0.35416  -0.34630  -0.34351
 Alpha  occ. eigenvalues --   -0.33912  -0.33368  -0.32749  -0.31869  -0.31653
 Alpha  occ. eigenvalues --   -0.26731  -0.26300  -0.24723  -0.23580  -0.20555
 Alpha virt. eigenvalues --   -0.03503  -0.01184   0.03807   0.08353   0.09926
 Alpha virt. eigenvalues --    0.10026   0.10346   0.10795   0.11454   0.12055
 Alpha virt. eigenvalues --    0.13069   0.13993   0.14361   0.15283   0.15695

 Mulliken charges:
               1
     1  C   -0.467236
     2  C    0.070482
     3  C   -0.448117
     4  N   -0.612665
     5  C   -0.154398
     6  C    0.122268
     7  O   -0.690746
     8  C   -0.044179
     9  O   -0.534237
    10  C    0.326756
    11  C   -0.229152
    12  C   -0.163472
    13  C   -0.215478
    14  C    0.123175
    15  C   -0.220235
    16  C   -0.148307
    17  C   -0.158338
    18  C   -0.192569
    19  C    0.044474
    20  H    0.150752
    21  H    0.154468
    22  H    0.150499
    23  H    0.120083
    24  H    0.147013
    25  H    0.148937
    26  H    0.152848
    27  H    0.338513
    28  H    0.141633
    29  H    0.158476
    30  H    0.129593
    31  H    0.415531
    32  H    0.159321
    33  H    0.158102
    34  H    0.162345
    35  H    0.151306
    36  H    0.145836
    37  H    0.151029
    38  H    0.150183
    39  H    0.149450
    40  H    0.156055
 Sum of Mulliken charges =  -0.00000

 Dipole moment (field-independent basis, Debye):
    X=             -4.2456    Y=              1.8901    Z=             -2.7975  Tot=              5.4244
 Quadrupole moment (field-independent basis, Debye-Ang):
   XX=            -88.1475   YY=           -104.4642   ZZ=           -117.2832
   XY=             -1.2728   XZ=              7.3186   YZ=              2.1577

 Normal termination of Gaussian 16 at Wed Mar  2 06:03:10 2022.
