 Gaussian 16, Revision A.03,

 ----------------------------------------------------------------------
 #p b3lyp/6-31G(d) opt=(MaxStep=10,MaxCycles=1000) freq scf=(MaxCycle=2
 000,NoVarAcc,NoIncFock) scrf=(iefpcm,read,solvent=water)
 ----------------------------------------------------------------------

 ------------
 59.n.pdb.xyz
 ------------
 Symbolic Z-matrix:
 Charge =  0 Multiplicity = 1

 SCF Done:  E(RB3LYP) =  -1441.22322812     A.U. after   13 cycles
 SCF Done:  E(RB3LYP) =  -1441.23001652     A.U. after   10 cycles
 SCF Done:  E(RB3LYP) =  -1441.23266772     A.U. after   11 cycles
 SCF Done:  E(RB3LYP) =  -1441.23474267     A.U. after   10 cycles
 SCF Done:  E(RB3LYP) =  -1441.23374041     A.U. after   11 cycles
 SCF Done:  E(RB3LYP) =  -1441.23529418     A.U. after   10 cycles
 SCF Done:  E(RB3LYP) =  -1441.23528320     A.U. after   10 cycles
 SCF Done:  E(RB3LYP) =  -1441.23535737     A.U. after   10 cycles
 SCF Done:  E(RB3LYP) =  -1441.23544947     A.U. after    9 cycles
 SCF Done:  E(RB3LYP) =  -1441.23557216     A.U. after   10 cycles
 SCF Done:  E(RB3LYP) =  -1441.23575023     A.U. after    8 cycles
 SCF Done:  E(RB3LYP) =  -1441.23574990     A.U. after    8 cycles
 SCF Done:  E(RB3LYP) =  -1441.23575172     A.U. after    8 cycles
 SCF Done:  E(RB3LYP) =  -1441.23574951     A.U. after    8 cycles
 SCF Done:  E(RB3LYP) =  -1441.23574913     A.U. after    6 cycles
 SCF Done:  E(RB3LYP) =  -1441.23575162     A.U. after    8 cycles
 SCF Done:  E(RB3LYP) =  -1441.23574918     A.U. after    8 cycles
 Optimization completed on the basis of negligible forces.
    -- Stationary point found.
 Normal termination of Gaussian 16 at Wed Mar  2 08:50:58 2022.

 --------------------------------------------------------------------
 #P Geom=AllCheck Guess=TCheck SCRF=Check GenChk RB3LYP/6-31G(d) Freq
 --------------------------------------------------------------------

 Structure from the checkpoint file:  "59.n.pdb.xyz.mst.wat.chk"
 ------------
 59.n.pdb.xyz
 ------------
 Charge =  0 Multiplicity = 1

 SCF Done:  E(RB3LYP) =  -1441.23574918     A.U. after    1 cycles

  Exact polarizability: 318.277  27.928 320.711   6.783  -1.529 162.092
 Approx polarizability: 343.924  26.267 373.230   9.043   1.228 186.108

 ******    1 imaginary frequencies (negative Signs) ******

                      1                      2                      3
                      A                      A                      A
 Frequencies --     -8.8305                24.8818                45.8466
 Red. masses --     18.1282                 6.6458                 6.0993
 Frc consts  --      0.0008                 0.0024                 0.0076
 IR Inten    --      0.0214                 0.0293                 2.2537

                      4                      5                      6
                      A                      A                      A
 Frequencies --     50.9337                57.3938                74.3927
 Red. masses --      5.2252                 8.2291                 4.8288
 Frc consts  --      0.0080                 0.0160                 0.0157
 IR Inten    --      2.3470                 0.8841                 0.5112

                      7                      8                      9
                      A                      A                      A
 Frequencies --     94.8136               103.3592               132.9401
 Red. masses --     13.6635                 6.4600                 4.6953
 Frc consts  --      0.0724                 0.0407                 0.0489
 IR Inten    --      0.2301                 0.8586                 2.0232

                     10                     11                     12
                      A                      A                      A
 Frequencies --    141.9462               166.8378               187.4080
 Red. masses --      5.7095                 6.7515                 5.2459
 Frc consts  --      0.0678                 0.1107                 0.1086
 IR Inten    --      3.2180                 0.1734                 7.7829

                     13                     14                     15
                      A                      A                      A
 Frequencies --    195.7421               217.9652               245.5169
 Red. masses --      6.3751                 5.5929                 3.2671
 Frc consts  --      0.1439                 0.1566                 0.1160
 IR Inten    --      1.6147                 3.3449                 0.8177

                     16                     17                     18
                      A                      A                      A
 Frequencies --    256.8670               288.9869               306.5912
 Red. masses --      3.1057                 6.3112                 7.4660
 Frc consts  --      0.1207                 0.3105                 0.4135
 IR Inten    --      0.5949                 6.0319                 1.1085

                     19                     20                     21
                      A                      A                      A
 Frequencies --    314.4783               315.1350               333.2168
 Red. masses --      3.7130                 7.1137                 6.7487
 Frc consts  --      0.2163                 0.4162                 0.4415
 IR Inten    --      2.5295                 1.8300                 0.1217

                     22                     23                     24
                      A                      A                      A
 Frequencies --    363.0006               381.8669               394.2913
 Red. masses --      9.5007                 2.8064                 4.4446
 Frc consts  --      0.7376                 0.2411                 0.4071
 IR Inten    --     12.6471                 2.5678                 1.7496

                     25                     26                     27
                      A                      A                      A
 Frequencies --    404.7330               447.8243               464.1310
 Red. masses --      8.9910                 3.0959                 3.5923
 Frc consts  --      0.8678                 0.3658                 0.4559
 IR Inten    --      0.5223                 1.0017                 3.1650

                     28                     29                     30
                      A                      A                      A
 Frequencies --    487.2841               502.8546               507.0041
 Red. masses --      6.5145                 9.9509                 7.6361
 Frc consts  --      0.9114                 1.4825                 1.1565
 IR Inten    --      2.6815                 5.1668                 4.2384

                     31                     32                     33
                      A                      A                      A
 Frequencies --    530.1469               536.0328               553.1067
 Red. masses --      1.3395                 7.5734                 6.2242
 Frc consts  --      0.2218                 1.2821                 1.1219
 IR Inten    --     62.5869                 7.2241                 6.5193

                     34                     35                     36
                      A                      A                      A
 Frequencies --    574.5623               584.9332               593.3812
 Red. masses --      4.5561                 1.5810                 7.6153
 Frc consts  --      0.8862                 0.3187                 1.5798
 IR Inten    --      0.7701               135.0717                 3.5029

                     37                     38                     39
                      A                      A                      A
 Frequencies --    615.2094               622.2737               645.8109
 Red. masses --      8.9258                 7.0259                 7.4631
 Frc consts  --      1.9904                 1.6029                 1.8339
 IR Inten    --      2.8589                 7.6674                39.6551

                     40                     41                     42
                      A                      A                      A
 Frequencies --    679.7103               709.1766               743.1876
 Red. masses --      5.1864                 6.3807                 7.2109
 Frc consts  --      1.4118                 1.8907                 2.3466
 IR Inten    --     63.8437                16.9738                 9.4555

                     43                     44                     45
                      A                      A                      A
 Frequencies --    743.7686               754.4295               787.4563
 Red. masses --      6.5660                 5.5789                 1.7788
 Frc consts  --      2.1401                 1.8708                 0.6499
 IR Inten    --     19.8962                19.7751                40.4630

                     46                     47                     48
                      A                      A                      A
 Frequencies --    810.9422               838.2294               843.5843
 Red. masses --      1.9678                 1.9423                 4.1068
 Frc consts  --      0.7625                 0.8041                 1.7219
 IR Inten    --     54.7971                51.6995                 0.9787

                     49                     50                     51
                      A                      A                      A
 Frequencies --    859.4780               869.6896               881.7766
 Red. masses --      4.1014                 2.5865                 1.8119
 Frc consts  --      1.7850                 1.1526                 0.8301
 IR Inten    --     13.2456                52.2796                40.9421

                     52                     53                     54
                      A                      A                      A
 Frequencies --    884.0663               913.6900               934.6603
 Red. masses --      4.2934                 3.1591                 1.6316
 Frc consts  --      1.9771                 1.5539                 0.8398
 IR Inten    --     31.5218                21.5593                10.7315

                     55                     56                     57
                      A                      A                      A
 Frequencies --    953.7073               958.5532               961.2275
 Red. masses --      1.7116                 1.9799                 1.4244
 Frc consts  --      0.9172                 1.0718                 0.7754
 IR Inten    --      5.3419                21.1405                 4.1660

                     58                     59                     60
                      A                      A                      A
 Frequencies --    978.3065              1009.9505              1036.6781
 Red. masses --      2.6011                 1.3288                 2.2885
 Frc consts  --      1.4668                 0.7986                 1.4491
 IR Inten    --      5.2988                 3.0527                17.2198

                     61                     62                     63
                      A                      A                      A
 Frequencies --   1068.5305              1069.6386              1088.3477
 Red. masses --      1.5658                 5.0907                 2.1662
 Frc consts  --      1.0533                 3.4316                 1.5118
 IR Inten    --     12.2048               153.1202                23.9805

                     64                     65                     66
                      A                      A                      A
 Frequencies --   1098.2860              1103.6976              1136.7598
 Red. masses --      2.4875                 2.6910                 4.8651
 Frc consts  --      1.7679                 1.9314                 3.7041
 IR Inten    --     28.0769                80.4408               525.6376

                     67                     68                     69
                      A                      A                      A
 Frequencies --   1140.9677              1149.5847              1158.1326
 Red. masses --      3.6177                12.0920                 3.0733
 Frc consts  --      2.7748                 9.4152                 2.4287
 IR Inten    --     47.4687               352.0006               178.7807

                     70                     71                     72
                      A                      A                      A
 Frequencies --   1159.4762              1169.8455              1178.5439
 Red. masses --      4.2462                 3.6222                 1.3362
 Frc consts  --      3.3634                 2.9206                 1.0935
 IR Inten    --    224.0212                75.8562                22.4356

                     73                     74                     75
                      A                      A                      A
 Frequencies --   1188.6775              1191.0562              1222.7471
 Red. masses --      4.1540                 2.3063                 1.4375
 Frc consts  --      3.4581                 1.9277                 1.2663
 IR Inten    --    449.7210                46.2579                44.3099

                     76                     77                     78
                      A                      A                      A
 Frequencies --   1235.7645              1257.6942              1262.0591
 Red. masses --      1.7247                 1.7800                 1.4169
 Frc consts  --      1.5518                 1.6589                 1.3297
 IR Inten    --     64.2249                20.9960                75.0063

                     79                     80                     81
                      A                      A                      A
 Frequencies --   1293.1359              1306.3040              1319.0003
 Red. masses --      1.2971                 2.2527                 1.3930
 Frc consts  --      1.2779                 2.2649                 1.4279
 IR Inten    --     14.6820                52.4077                14.9345

                     82                     83                     84
                      A                      A                      A
 Frequencies --   1325.9599              1339.5463              1357.9183
 Red. masses --      2.7221                 1.5402                 1.6411
 Frc consts  --      2.8198                 1.6284                 1.7829
 IR Inten    --    546.6825                76.0881                34.7830

                     85                     86                     87
                      A                      A                      A
 Frequencies --   1371.7825              1376.6047              1384.0604
 Red. masses --      1.6162                 1.6960                 1.8612
 Frc consts  --      1.7919                 1.8937                 2.1006
 IR Inten    --     13.8295                39.7661                25.3815

                     88                     89                     90
                      A                      A                      A
 Frequencies --   1389.9628              1399.6789              1402.8755
 Red. masses --      2.0922                 1.5267                 2.6578
 Frc consts  --      2.3816                 1.7622                 3.0818
 IR Inten    --      6.0915                12.3048                57.6950

                     91                     92                     93
                      A                      A                      A
 Frequencies --   1408.0499              1425.9661              1459.9048
 Red. masses --      4.3635                 1.3031                 1.5446
 Frc consts  --      5.0971                 1.5611                 1.9396
 IR Inten    --     24.9772                58.6038               154.0720

                     94                     95                     96
                      A                      A                      A
 Frequencies --   1474.1764              1494.2489              1504.8381
 Red. masses --      2.0552                 1.0970                 1.0929
 Frc consts  --      2.6315                 1.4431                 1.4582
 IR Inten    --      7.0637                 3.4066                 6.9312

                     97                     98                     99
                      A                      A                      A
 Frequencies --   1515.9733              1517.3617              1519.5296
 Red. masses --      3.1038                 1.1145                 1.3399
 Frc consts  --      4.2027                 1.5119                 1.8229
 IR Inten    --     26.8026                 2.8374                 9.1065

                    100                    101                    102
                      A                      A                      A
 Frequencies --   1539.2525              1562.0271              1632.5730
 Red. masses --      1.1074                 4.7920                 9.0232
 Frc consts  --      1.5459                 6.8888                14.1696
 IR Inten    --      4.8499                43.5701                71.1421

                    103                    104                    105
                      A                      A                      A
 Frequencies --   1647.1177              1671.3121              2978.1740
 Red. masses --      6.6047                 5.8333                 1.0729
 Frc consts  --     10.5573                 9.6001                 5.6067
 IR Inten    --     75.8977                 2.4587               134.2428

                    106                    107                    108
                      A                      A                      A
 Frequencies --   2995.9809              3041.4384              3051.8069
 Red. masses --      1.0819                 1.0665                 1.0639
 Frc consts  --      5.7214                 5.8127                 5.8378
 IR Inten    --     97.5779                55.0742                39.5088

                    109                    110                    111
                      A                      A                      A
 Frequencies --   3052.7070              3057.5031              3090.8709
 Red. masses --      1.0784                 1.0659                 1.0957
 Frc consts  --      5.9212                 5.8708                 6.1673
 IR Inten    --     28.2062                61.2889                95.4959

                    112                    113                    114
                      A                      A                      A
 Frequencies --   3100.4840              3101.5024              3104.2808
 Red. masses --      1.1035                 1.0900                 1.1016
 Frc consts  --      6.2501                 6.1778                 6.2547
 IR Inten    --     76.1493                73.4766               108.3958

                    115                    116                    117
                      A                      A                      A
 Frequencies --   3228.4555              3251.6303              3266.0784
 Red. masses --      1.0896                 1.0923                 1.0929
 Frc consts  --      6.6912                 6.8046                 6.8687
 IR Inten    --     16.3713                 6.9552                 7.8845

                    118                    119                    120
                      A                      A                      A
 Frequencies --   3271.4465              3498.2975              3501.1650
 Red. masses --      1.0904                 1.0681                 1.0718
 Frc consts  --      6.8758                 7.7016                 7.7407
 IR Inten    --      2.1942               249.9646                88.8876

 - Thermochemistry -
 -------------------
 Temperature   298.150 Kelvin.  Pressure   1.00000 Atm.
 Atom     1 has atomic number  8 and mass  15.99491

 Molecular mass:   378.11668 amu.
 Principal axes and moments of inertia in atomic units:
                           1         2         3
     Eigenvalues --  5699.40796********************
           X            1.00000   0.00279  -0.00032
           Y           -0.00279   0.99997  -0.00776
           Z            0.00030   0.00776   0.99997
 This molecule is an asymmetric top.
 Rotational symmetry number  1.
 Warning -- assumption of classical behavior for rotation
           may cause significant error
 Rotational temperatures (Kelvin)      0.01520     0.00574     0.00444
 Rotational constants (GHZ):           0.31665     0.11951     0.09252
    1 imaginary frequencies ignored.
 Zero-point vibrational energy     837546.0 (Joules/Mol)
                                  200.17830 (Kcal/Mol)
 Warning -- explicit consideration of  36 degrees of freedom as
           vibrations may cause significant error
 Vibrational temperatures:     35.80    65.96    73.28    82.58   107.03
          (Kelvin)            136.42   148.71   191.27   204.23   240.04
                              269.64   281.63   313.60   353.24   369.57
                              415.79   441.12   452.46   453.41   479.42
                              522.28   549.42   567.30   582.32   644.32
                              667.78   701.09   723.50   729.47   762.76
                              771.23   795.80   826.67   841.59   853.74
                              885.15   895.31   929.18   977.95  1020.35
                             1069.28  1070.12  1085.46  1132.97  1166.76
                             1206.03  1213.73  1236.60  1251.29  1268.68
                             1271.97  1314.60  1344.77  1372.17  1379.14
                             1382.99  1407.56  1453.09  1491.55  1537.38
                             1538.97  1565.89  1580.19  1587.97  1635.54
                             1641.60  1654.00  1666.29  1668.23  1683.15
                             1695.66  1710.24  1713.66  1759.26  1777.99
                             1809.54  1815.82  1860.53  1879.48  1897.75
                             1907.76  1927.31  1953.74  1973.69  1980.63
                             1991.35  1999.85  2013.83  2018.42  2025.87
                             2051.65  2100.48  2121.01  2149.89  2165.13
                             2181.15  2183.15  2186.26  2214.64  2247.41
                             2348.91  2369.83  2404.65  4284.93  4310.55
                             4375.95  4390.87  4392.16  4399.07  4447.07
                             4460.90  4462.37  4466.37  4645.03  4678.37
                             4699.16  4706.88  5033.27  5037.40

 Zero-point correction=                           0.319004 (Hartree/Particle)
 Thermal correction to Energy=                    0.340043
 Thermal correction to Enthalpy=                  0.340987
 Thermal correction to Gibbs Free Energy=         0.268461
 Sum of electronic and zero-point Energies=          -1440.916745
 Sum of electronic and thermal Energies=             -1440.895706
 Sum of electronic and thermal Enthalpies=           -1440.894762
 Sum of electronic and thermal Free Energies=        -1440.967288

                     E (Thermal)             CV                S
                      KCal/Mol        Cal/Mol-Kelvin    Cal/Mol-Kelvin
 Total                  213.380             83.376            152.644
 Electronic               0.000              0.000              0.000
 Translational            0.889              2.981             43.683
 Rotational               0.889              2.981             35.772
 Vibrational            211.603             77.414             73.190
 Vibration     1          0.593              1.985              6.201
 Vibration     2          0.595              1.979              4.989
 Vibration     3          0.595              1.977              4.781
 Vibration     4          0.596              1.975              4.545
 Vibration     5          0.599              1.966              4.034
 Vibration     6          0.603              1.953              3.558
 Vibration     7          0.605              1.947              3.390
 Vibration     8          0.613              1.920              2.903
 Vibration     9          0.615              1.911              2.777
 Vibration    10          0.624              1.883              2.471
 Vibration    11          0.632              1.857              2.253
 Vibration    12          0.636              1.846              2.173
 Vibration    13          0.646              1.814              1.976
 Vibration    14          0.660              1.770              1.763
 Vibration    15          0.666              1.751              1.683
 Vibration    16          0.686              1.694              1.480
 Vibration    17          0.697              1.661              1.381
 Vibration    18          0.702              1.646              1.339
 Vibration    19          0.702              1.645              1.335
 Vibration    20          0.715              1.609              1.244
 Vibration    21          0.737              1.548              1.109
 Vibration    22          0.751              1.509              1.032
 Vibration    23          0.761              1.482              0.984
 Vibration    24          0.770              1.460              0.945
 Vibration    25          0.807              1.366              0.802
 Vibration    26          0.822              1.330              0.754
 Vibration    27          0.843              1.278              0.691
 Vibration    28          0.858              1.244              0.651
 Vibration    29          0.862              1.234              0.641
 Vibration    30          0.885              1.183              0.587
 Vibration    31          0.891              1.170              0.574
 Vibration    32          0.908              1.133              0.538
 Vibration    33          0.931              1.086              0.496
 Vibration    34          0.942              1.064              0.476
 Vibration    35          0.951              1.046              0.461
 Vibration    36          0.975              1.000              0.424

 Optimization completed.
    -- Stationary point found.
 Normal termination of Gaussian 16 at Wed Mar  2 11:00:39 2022.

 ------------------------------------------
 #p b3lyp/6-31G(d) geom=allcheck guess=read
 ------------------------------------------

 Structure from the checkpoint file:  "59.n.pdb.xyz.mst.wat.chk"
 ------------
 59.n.pdb.xyz
 ------------
 Charge =  0 Multiplicity = 1

 SCF Done:  E(RB3LYP) =  -1441.22928721     A.U. after   11 cycles
 Normal termination of Gaussian 16 at Wed Mar  2 11:08:40 2022.
 Gaussian 16:  ES64L-G16RevA.03 25-Dec-2016

 ----------------------------------------------------------------------
 #p b3lyp/6-31G(d) scrf=(iefpcm,read,solvent=water) geom=allcheck guess
 =read
 ----------------------------------------------------------------------

 Structure from the checkpoint file:  "59.n.pdb.xyz.mst.wat.chk"
 ------------
 59.n.pdb.xyz
 ------------
 Charge =  0 Multiplicity = 1

                         Standard orientation:
 ---------------------------------------------------------------------
 Center     Atomic      Atomic             Coordinates (Angstroms)
 Number     Number       Type             X           Y           Z
 ---------------------------------------------------------------------
      1          8           0        2.180537   -2.237389   -0.661244
      2          6           0        2.032580   -1.274438    0.383102
      3          6           0        3.297921   -0.383405    0.413978
      4          6           0        4.478835   -1.181113    0.991017
      5          6           0        5.806671   -0.431481    0.852260
      6          6           0        6.039004   -0.014441   -0.602871
      7          6           0        4.844338    0.785462   -1.115679
      8          7           0        3.600575    0.011151   -0.974806
      9          6           0        0.697469   -0.533095    0.247105
     10          6           0        0.607813    0.843826    0.250725
     11          6           0       -0.655138    1.456364    0.135948
     12          7           0       -1.797463    0.814084    0.038006
     13          6           0       -1.752746   -0.544920    0.051103
     14          6           0       -2.984716   -1.263856   -0.032237
     15          6           0       -2.988802   -2.639556   -0.005030
     16          6           0       -1.777536   -3.357853    0.101750
     17          6           0       -0.575029   -2.696054    0.173411
     18          6           0       -0.523792   -1.274742    0.151184
     19          6           0       -4.286532   -0.517956   -0.143005
     20          9           0       -4.342647    0.266053   -1.243758
     21          9           0       -4.515805    0.284176    0.921948
     22          9           0       -5.338333   -1.365909   -0.220430
     23          6           0       -0.773922    2.966796    0.139777
     24          9           0        0.433823    3.566547    0.097357
     25          9           0       -1.403286    3.406760    1.251273
     26          9           0       -1.485017    3.409973   -0.916295
     27          1           0        2.727647   -1.768998   -1.331571
     28          1           0        1.992099   -1.831830    1.326831
     29          1           0        3.122574    0.487689    1.064893
     30          1           0        4.537119   -2.137778    0.459539
     31          1           0        4.271643   -1.406443    2.042625
     32          1           0        5.789544    0.464677    1.486864
     33          1           0        6.629675   -1.057454    1.213205
     34          1           0        6.171026   -0.906591   -1.228005
     35          1           0        6.948552    0.587696   -0.695405
     36          1           0        4.788857    1.739846   -0.564545
     37          1           0        4.965646    1.031140   -2.174859
     38          1           0        2.833488    0.570674   -1.345041
     39          1           0        1.481643    1.472012    0.342355
     40          1           0       -3.928494   -3.173004   -0.065649
     41          1           0       -1.803646   -4.441277    0.122436
     42          1           0        0.349414   -3.253523    0.227795
 ---------------------------------------------------------------------

 SCF Done:  E(RB3LYP) =  -1441.23284810     A.U. after   10 cycles

 The electronic state is 1-A.
 Alpha  occ. eigenvalues --  -24.73544 -24.72939 -24.72905 -24.72867 -24.72259
 Alpha  occ. eigenvalues --  -24.72259 -19.14249 -14.35085 -14.32822 -10.43868
 Alpha  occ. eigenvalues --  -10.43639 -10.25499 -10.24941 -10.24812 -10.22840
 Alpha  occ. eigenvalues --  -10.22165 -10.22097 -10.21884 -10.21440 -10.21311
 Alpha  occ. eigenvalues --  -10.20706 -10.20625 -10.20585 -10.17848 -10.17783
 Alpha  occ. eigenvalues --  -10.17685  -1.30958  -1.30300  -1.22399  -1.21922
 Alpha  occ. eigenvalues --   -1.21644  -1.21262  -1.02164  -0.97139  -0.91177
 Alpha  occ. eigenvalues --   -0.87230  -0.83665  -0.78851  -0.78481  -0.78298
 Alpha  occ. eigenvalues --   -0.76247  -0.72125  -0.70076  -0.69421  -0.65476
 Alpha  occ. eigenvalues --   -0.64892  -0.63351  -0.62208  -0.60503  -0.59136
 Alpha  occ. eigenvalues --   -0.58758  -0.58240  -0.58141  -0.56751  -0.55383
 Alpha  occ. eigenvalues --   -0.54852  -0.54056  -0.52021  -0.49606  -0.48773
 Alpha  occ. eigenvalues --   -0.48254  -0.46922  -0.46551  -0.46441  -0.46332
 Alpha  occ. eigenvalues --   -0.45967  -0.45632  -0.44923  -0.44378  -0.43731
 Alpha  occ. eigenvalues --   -0.43502  -0.42708  -0.42422  -0.42081  -0.41580
 Alpha  occ. eigenvalues --   -0.41132  -0.40734  -0.40490  -0.40395  -0.39879
 Alpha  occ. eigenvalues --   -0.39856  -0.39008  -0.38052  -0.37014  -0.36759
 Alpha  occ. eigenvalues --   -0.35843  -0.35508  -0.33716  -0.32836  -0.31560
 Alpha  occ. eigenvalues --   -0.31126  -0.30678  -0.28669  -0.27079  -0.26590
 Alpha  occ. eigenvalues --   -0.25098  -0.23812
 Alpha virt. eigenvalues --   -0.07706  -0.03549  -0.00543   0.06019   0.08200
 Alpha virt. eigenvalues --    0.10321   0.10602   0.11494   0.12318   0.13179
 Alpha virt. eigenvalues --    0.13795   0.14360   0.14616   0.15234   0.15914

 Mulliken charges:
               1
     1  O   -0.673385
     2  C    0.030820
     3  C    0.009143
     4  C   -0.262904
     5  C   -0.273853
     6  C   -0.257717
     7  C   -0.125459
     8  N   -0.626317
     9  C    0.166024
    10  C   -0.233364
    11  C    0.161778
    12  N   -0.596281
    13  C    0.222728
    14  C   -0.057347
    15  C   -0.184142
    16  C   -0.142228
    17  C   -0.177286
    18  C    0.098239
    19  C    0.841300
    20  F   -0.277746
    21  F   -0.277730
    22  F   -0.280334
    23  C    0.819401
    24  F   -0.271078
    25  F   -0.268149
    26  F   -0.267382
    27  H    0.424826
    28  H    0.166973
    29  H    0.138040
    30  H    0.142543
    31  H    0.145012
    32  H    0.136373
    33  H    0.141610
    34  H    0.138334
    35  H    0.141838
    36  H    0.127507
    37  H    0.149541
    38  H    0.345949
    39  H    0.175319
    40  H    0.176873
    41  H    0.169755
    42  H    0.182774
 Sum of Mulliken charges =  -0.00000

 Dipole moment (field-independent basis, Debye):
    X=              7.0282    Y=             -2.8028    Z=              0.8100  Tot=              7.6097
 Quadrupole moment (field-independent basis, Debye-Ang):
   XX=           -147.3086   YY=           -146.3502   ZZ=           -144.8168
   XY=             16.9009   XZ=              0.3875   YZ=             -4.0333

 Normal termination of Gaussian 16 at Wed Mar  2 11:17:30 2022.
