 Gaussian 16, Revision A.03,

 ----------------------------------------------------------------------
 #p b3lyp/6-31G(d) opt=(MaxStep=10,MaxCycles=1000) freq scf=(MaxCycle=2
 000,NoVarAcc,NoIncFock) scrf=(iefpcm,read,solvent=water)
 ----------------------------------------------------------------------

 -----------
 6.n.pdb.xyz
 -----------
 Symbolic Z-matrix:
 Charge =  0 Multiplicity = 1

 SCF Done:  E(RB3LYP) =  -1096.39662433     A.U. after   13 cycles
 SCF Done:  E(RB3LYP) =  -1096.39964984     A.U. after   11 cycles
 SCF Done:  E(RB3LYP) =  -1096.40006747     A.U. after   12 cycles
 SCF Done:  E(RB3LYP) =  -1096.40102737     A.U. after   11 cycles
 SCF Done:  E(RB3LYP) =  -1096.40124172     A.U. after   10 cycles
 SCF Done:  E(RB3LYP) =  -1096.39994618     A.U. after   11 cycles
 SCF Done:  E(RB3LYP) =  -1096.40131732     A.U. after   10 cycles
 SCF Done:  E(RB3LYP) =  -1096.40131014     A.U. after   11 cycles
 SCF Done:  E(RB3LYP) =  -1096.40166702     A.U. after   11 cycles
 SCF Done:  E(RB3LYP) =  -1096.40163170     A.U. after   11 cycles
 SCF Done:  E(RB3LYP) =  -1096.40269176     A.U. after    9 cycles
 SCF Done:  E(RB3LYP) =  -1096.40265480     A.U. after    9 cycles
 SCF Done:  E(RB3LYP) =  -1096.40271235     A.U. after    9 cycles
 SCF Done:  E(RB3LYP) =  -1096.40266900     A.U. after    9 cycles
 SCF Done:  E(RB3LYP) =  -1096.40262983     A.U. after    9 cycles
 SCF Done:  E(RB3LYP) =  -1096.40263896     A.U. after    8 cycles
 SCF Done:  E(RB3LYP) =  -1096.40264169     A.U. after    7 cycles
 Optimization completed.
    -- Stationary point found.
 Normal termination of Gaussian 16 at Wed Mar  2 02:05:49 2022.

 --------------------------------------------------------------------
 #P Geom=AllCheck Guess=TCheck SCRF=Check GenChk RB3LYP/6-31G(d) Freq
 --------------------------------------------------------------------

 Structure from the checkpoint file:  "6.n.pdb.xyz.mst.wat.chk"
 -----------
 6.n.pdb.xyz
 -----------
 Charge =  0 Multiplicity = 1

 SCF Done:  E(RB3LYP) =  -1096.40264169     A.U. after    1 cycles

  Exact polarizability: 264.513  -0.189 221.261  13.821  -8.306 135.042
 Approx polarizability: 274.610  -0.116 263.209  15.201 -11.231 145.323

                      1                      2                      3
                      A                      A                      A
 Frequencies --     21.7498                34.7271                37.6858
 Red. masses --      6.4420                 3.6362                 3.2615
 Frc consts  --      0.0018                 0.0026                 0.0027
 IR Inten    --      0.4084                 0.8880                 0.7132

                      4                      5                      6
                      A                      A                      A
 Frequencies --     53.6783               110.6088               139.9706
 Red. masses --      3.0746                 4.8983                 5.7528
 Frc consts  --      0.0052                 0.0353                 0.0664
 IR Inten    --      0.9221                 1.1147                 1.5964

                      7                      8                      9
                      A                      A                      A
 Frequencies --    168.0260               187.8454               203.7052
 Red. masses --      3.5939                 3.8151                 2.2372
 Frc consts  --      0.0598                 0.0793                 0.0547
 IR Inten    --      1.4090                 0.8172                 0.2982

                     10                     11                     12
                      A                      A                      A
 Frequencies --    213.4294               226.8844               240.3251
 Red. masses --      2.8014                 1.1889                 1.3519
 Frc consts  --      0.0752                 0.0361                 0.0460
 IR Inten    --      4.3884                 0.8976                 0.8207

                     13                     14                     15
                      A                      A                      A
 Frequencies --    256.8805               269.2447               297.5467
 Red. masses --      1.3341                 1.8638                 1.1862
 Frc consts  --      0.0519                 0.0796                 0.0619
 IR Inten    --      0.5149                 0.4197                 0.4049

                     16                     17                     18
                      A                      A                      A
 Frequencies --    324.7077               343.5182               358.1440
 Red. masses --      2.7180                 2.8089                 4.3871
 Frc consts  --      0.1688                 0.1953                 0.3315
 IR Inten    --      3.2882                 2.1232                 7.6143

                     19                     20                     21
                      A                      A                      A
 Frequencies --    383.8921               412.3567               432.3113
 Red. masses --      2.4716                 9.2843                 2.4593
 Frc consts  --      0.2146                 0.9301                 0.2708
 IR Inten    --      0.2707                16.1437                 7.6376

                     22                     23                     24
                      A                      A                      A
 Frequencies --    435.9172               457.5362               470.9622
 Red. masses --      3.2172                 2.8995                 2.7337
 Frc consts  --      0.3602                 0.3576                 0.3573
 IR Inten    --      1.1235                 6.1953                 8.9847

                     25                     26                     27
                      A                      A                      A
 Frequencies --    513.8408               544.1002               655.2629
 Red. masses --      5.0966                 3.5720                 5.9497
 Frc consts  --      0.7928                 0.6231                 1.5051
 IR Inten    --      3.1423                 4.1070                13.1812

                     28                     29                     30
                      A                      A                      A
 Frequencies --    682.5713               696.3033               742.2073
 Red. masses --      3.1052                 4.4803                 2.5261
 Frc consts  --      0.8524                 1.2798                 0.8199
 IR Inten    --      5.9756                56.4164               140.3352

                     31                     32                     33
                      A                      A                      A
 Frequencies --    758.7528               770.6648               811.0192
 Red. masses --      2.7347                 2.6653                 2.7471
 Frc consts  --      0.9276                 0.9327                 1.0646
 IR Inten    --     82.5619                34.9198                22.5703

                     34                     35                     36
                      A                      A                      A
 Frequencies --    813.3881               897.7007               918.2478
 Red. masses --      1.7331                 1.6889                 1.6963
 Frc consts  --      0.6756                 0.8019                 0.8427
 IR Inten    --     30.2598                 4.6058                 0.6798

                     37                     38                     39
                      A                      A                      A
 Frequencies --    931.2943               933.8727               941.1501
 Red. masses --      1.3771                 1.6282                 1.4047
 Frc consts  --      0.7037                 0.8366                 0.7331
 IR Inten    --      5.2330                 4.9882                 9.1687

                     40                     41                     42
                      A                      A                      A
 Frequencies --    967.6539               975.7405               996.2495
 Red. masses --      1.2055                 2.4191                 1.3163
 Frc consts  --      0.6651                 1.3570                 0.7697
 IR Inten    --      0.0088                 2.9158                 0.3652

                     43                     44                     45
                      A                      A                      A
 Frequencies --   1001.2411              1019.8307              1044.0579
 Red. masses --      4.3716                 4.2345                 1.4814
 Frc consts  --      2.5821                 2.5948                 0.9514
 IR Inten    --     33.6060                24.3107                 4.1788

                     46                     47                     48
                      A                      A                      A
 Frequencies --   1048.6143              1077.8255              1094.6098
 Red. masses --      1.4562                 1.8025                 2.1487
 Frc consts  --      0.9434                 1.2338                 1.5168
 IR Inten    --      1.4285                 7.1177                14.3657

                     49                     50                     51
                      A                      A                      A
 Frequencies --   1100.1290              1119.8285              1175.6126
 Red. masses --      1.9888                 1.5896                 2.3576
 Frc consts  --      1.4181                 1.1745                 1.9198
 IR Inten    --     29.1068                 4.7262               236.1980

                     52                     53                     54
                      A                      A                      A
 Frequencies --   1199.9452              1226.1954              1240.0613
 Red. masses --      1.2879                 2.3705                 2.4969
 Frc consts  --      1.0926                 2.1000                 2.2622
 IR Inten    --     31.7554               272.7606                32.2250

                     55                     56                     57
                      A                      A                      A
 Frequencies --   1259.8840              1288.1825              1312.6910
 Red. masses --      2.7459                 2.5786                 1.3983
 Frc consts  --      2.5680                 2.5211                 1.4196
 IR Inten    --     50.4109                22.0024                13.3037

                     58                     59                     60
                      A                      A                      A
 Frequencies --   1318.0360              1359.9120              1398.8951
 Red. masses --      1.6634                 6.0251                 1.3294
 Frc consts  --      1.7025                 6.5650                 1.5328
 IR Inten    --     31.2898                 6.0646                 7.6253

                     61                     62                     63
                      A                      A                      A
 Frequencies --   1413.8559              1418.5048              1426.3776
 Red. masses --      1.2558                 1.2407                 1.3388
 Frc consts  --      1.4790                 1.4709                 1.6049
 IR Inten    --      6.7479                 8.3537                14.5261

                     64                     65                     66
                      A                      A                      A
 Frequencies --   1438.2389              1467.9408              1496.5830
 Red. masses --      1.2453                 2.6297                 1.0943
 Frc consts  --      1.5177                 3.3386                 1.4441
 IR Inten    --     10.6012               103.6300                11.4939

                     67                     68                     69
                      A                      A                      A
 Frequencies --   1502.8698              1505.4776              1509.1355
 Red. masses --      1.0711                 1.0509                 1.0488
 Frc consts  --      1.4254                 1.4034                 1.4073
 IR Inten    --      4.7474                 0.9479                 0.7484

                     70                     71                     72
                      A                      A                      A
 Frequencies --   1511.6573              1515.4968              1520.6204
 Red. masses --      1.0526                 1.9285                 1.0616
 Frc consts  --      1.4172                 2.6097                 1.4463
 IR Inten    --     10.6448                12.1028                 9.5683

                     73                     74                     75
                      A                      A                      A
 Frequencies --   1523.9336              1532.3609              1538.5969
 Red. masses --      1.1029                 1.0622                 1.1815
 Frc consts  --      1.5090                 1.4696                 1.6479
 IR Inten    --      2.5922                 9.9394                11.9350

                     76                     77                     78
                      A                      A                      A
 Frequencies --   1622.8343              1647.2990              1751.8379
 Red. masses --      6.0175                 5.9080                11.7518
 Frc consts  --      9.3371                 9.4458                21.2492
 IR Inten    --     54.9302                11.4487               339.5556

                     79                     80                     81
                      A                      A                      A
 Frequencies --   3051.5517              3054.3681              3062.4299
 Red. masses --      1.0357                 1.0354                 1.0368
 Frc consts  --      5.6822                 5.6911                 5.7289
 IR Inten    --     41.4825                60.7106                 6.5507

                     82                     83                     84
                      A                      A                      A
 Frequencies --   3070.2985              3117.9705              3119.2178
 Red. masses --      1.0361                 1.0993                 1.0966
 Frc consts  --      5.7544                 6.2966                 6.2860
 IR Inten    --     32.1861                19.6176                 9.7557

                     85                     86                     87
                      A                      A                      A
 Frequencies --   3122.3014              3125.2030              3129.4402
 Red. masses --      1.1005                 1.0943                 1.1016
 Frc consts  --      6.3212                 6.2970                 6.3562
 IR Inten    --    105.2899                 3.9634                77.9715

                     88                     89                     90
                      A                      A                      A
 Frequencies --   3131.5652              3138.0213              3138.9716
 Red. masses --      1.1033                 1.1023                 1.0992
 Frc consts  --      6.3749                 6.3956                 6.3812
 IR Inten    --     33.6840               101.7677                88.4968

                     91                     92                     93
                      A                      A                      A
 Frequencies --   3166.2768              3220.8241              3242.0673
 Red. masses --      1.1013                 1.0888                 1.0931
 Frc consts  --      6.5049                 6.6550                 6.7698
 IR Inten    --     25.5444                10.4124                 7.5434

                     94                     95                     96
                      A                      A                      A
 Frequencies --   3250.3160              3251.7170              3507.7257
 Red. masses --      1.0922                 1.0912                 1.0747
 Frc consts  --      6.7985                 6.7979                 7.7909
 IR Inten    --     14.6754                 3.5848                 3.8343

 - Thermochemistry -
 -------------------
 Temperature   298.150 Kelvin.  Pressure   1.00000 Atm.
 Atom     1 has atomic number  6 and mass  12.00000

 Molecular mass:   239.10769 amu.
 Principal axes and moments of inertia in atomic units:
                           1         2         3
     Eigenvalues --  1593.839849517.453279979.17310
           X            0.99998  -0.00556  -0.00407
           Y            0.00561   0.99992   0.01159
           Z            0.00400  -0.01161   0.99992
 This molecule is an asymmetric top.
 Rotational symmetry number  1.
 Warning -- assumption of classical behavior for rotation
           may cause significant error
 Rotational temperatures (Kelvin)      0.05434     0.00910     0.00868
 Rotational constants (GHZ):           1.13232     0.18962     0.18085
 Zero-point vibrational energy     754611.0 (Joules/Mol)
                                  180.35637 (Kcal/Mol)
 Warning -- explicit consideration of  26 degrees of freedom as
           vibrations may cause significant error
 Vibrational temperatures:     31.29    49.96    54.22    77.23   159.14
          (Kelvin)            201.39   241.75   270.27   293.09   307.08
                              326.44   345.77   369.59   387.38   428.10
                              467.18   494.25   515.29   552.34   593.29
                              622.00   627.19   658.29   677.61   739.30
                              782.84   942.78   982.07  1001.83  1067.87
                             1091.68  1108.81  1166.88  1170.28  1291.59
                             1321.15  1339.92  1343.63  1354.11  1392.24
                             1403.87  1433.38  1440.56  1467.31  1502.17
                             1508.72  1550.75  1574.90  1582.84  1611.18
                             1691.44  1726.45  1764.22  1784.17  1812.69
                             1853.41  1888.67  1896.36  1956.61  2012.70
                             2034.22  2040.91  2052.24  2069.30  2112.04
                             2153.25  2162.29  2166.05  2171.31  2174.94
                             2180.46  2187.83  2192.60  2204.73  2213.70
                             2334.90  2370.10  2520.50  4390.50  4394.55
                             4406.15  4417.47  4486.06  4487.86  4492.30
                             4496.47  4502.57  4505.62  4514.91  4516.28
                             4555.57  4634.05  4664.61  4676.48  4678.50
                             5046.83

 Zero-point correction=                           0.287416 (Hartree/Particle)
 Thermal correction to Energy=                    0.304546
 Thermal correction to Enthalpy=                  0.305491
 Thermal correction to Gibbs Free Energy=         0.241267
 Sum of electronic and zero-point Energies=          -1096.115226
 Sum of electronic and thermal Energies=             -1096.098095
 Sum of electronic and thermal Enthalpies=           -1096.097151
 Sum of electronic and thermal Free Energies=        -1096.161374

                     E (Thermal)             CV                S
                      KCal/Mol        Cal/Mol-Kelvin    Cal/Mol-Kelvin
 Total                  191.106             64.458            135.169
 Electronic               0.000              0.000              0.000
 Translational            0.889              2.981             42.317
 Rotational               0.889              2.981             33.381
 Vibrational            189.328             58.496             59.471
 Vibration     1          0.593              1.985              6.468
 Vibration     2          0.594              1.983              5.539
 Vibration     3          0.594              1.982              5.377
 Vibration     4          0.596              1.976              4.677
 Vibration     5          0.606              1.941              3.258
 Vibration     6          0.615              1.913              2.804
 Vibration     7          0.625              1.882              2.457
 Vibration     8          0.633              1.857              2.249
 Vibration     9          0.639              1.835              2.099
 Vibration    10          0.644              1.820              2.014
 Vibration    11          0.651              1.800              1.903
 Vibration    12          0.657              1.779              1.800
 Vibration    13          0.666              1.751              1.683
 Vibration    14          0.674              1.730              1.601
 Vibration    15          0.691              1.678              1.431
 Vibration    16          0.709              1.626              1.286
 Vibration    17          0.722              1.588              1.196
 Vibration    18          0.733              1.559              1.130
 Vibration    19          0.753              1.505              1.024
 Vibration    20          0.776              1.443              0.918
 Vibration    21          0.793              1.400              0.851
 Vibration    22          0.796              1.392              0.840
 Vibration    23          0.816              1.344              0.773
 Vibration    24          0.828              1.314              0.735
 Vibration    25          0.869              1.219              0.624
 Vibration    26          0.899              1.153              0.557

                           ! Non-Optimized Parameters !
 Normal termination of Gaussian 16 at Wed Mar  2 02:37:01 2022.

 ------------------------------------------
 #p b3lyp/6-31G(d) geom=allcheck guess=read
 ------------------------------------------

 Structure from the checkpoint file:  "6.n.pdb.xyz.mst.wat.chk"
 -----------
 6.n.pdb.xyz
 -----------
 Charge =  0 Multiplicity = 1

 SCF Done:  E(RB3LYP) =  -1096.39105685     A.U. after   12 cycles
 Normal termination of Gaussian 16 at Wed Mar  2 02:39:29 2022.
 Gaussian 16:  ES64L-G16RevA.03 25-Dec-2016

 ----------------------------------------------------------------------
 #p b3lyp/6-31G(d) scrf=(iefpcm,read,solvent=water) geom=allcheck guess
 =read
 ----------------------------------------------------------------------

 Structure from the checkpoint file:  "6.n.pdb.xyz.mst.wat.chk"
 -----------
 6.n.pdb.xyz
 -----------
 Charge =  0 Multiplicity = 1

                         Standard orientation:
 ---------------------------------------------------------------------
 Center     Atomic      Atomic             Coordinates (Angstroms)
 Number     Number       Type             X           Y           Z
 ---------------------------------------------------------------------
      1          6           0        1.485277    0.474872    2.095381
      2          6           0        1.436313    0.073956    0.603834
      3          7           0        2.562987   -0.748500    0.164942
      4          6           0        3.714260   -0.064621   -0.473345
      5          6           0        3.282866    0.462918   -1.853114
      6          6           0        4.291501    1.093181    0.367481
      7          6           0        4.794538   -1.140400   -0.663883
      8          6           0        0.119656   -0.682619    0.377801
      9          8           0        0.091290   -1.905381    0.441944
     10          6           0       -1.148294    0.083868    0.140910
     11          6           0       -2.336713   -0.656949    0.046509
     12          6           0       -3.535606    0.001711   -0.178829
     13         17           0       -5.024962   -0.932951   -0.297081
     14          6           0       -3.593289    1.389623   -0.314004
     15          6           0       -2.410817    2.122395   -0.219496
     16          6           0       -1.194215    1.478160    0.004841
     17          1           0        1.507747   -0.421831    2.722540
     18          1           0        0.614859    1.069852    2.387351
     19          1           0        2.384862    1.060356    2.291729
     20          1           0        1.425806    0.984150    0.001379
     21          1           0        2.898146   -1.303456    0.949652
     22          1           0        4.136728    0.905344   -2.375496
     23          1           0        2.883668   -0.350730   -2.466638
     24          1           0        2.512284    1.236605   -1.772267
     25          1           0        5.137231    1.562353   -0.145080
     26          1           0        4.643153    0.732043    1.340861
     27          1           0        3.539024    1.867598    0.544730
     28          1           0        4.410573   -1.971419   -1.263534
     29          1           0        5.123485   -1.539578    0.302175
     30          1           0        5.670170   -0.723679   -1.170147
     31          1           0       -2.294081   -1.733396    0.151167
     32          1           0       -4.541986    1.881736   -0.489727
     33          1           0       -2.441691    3.200972   -0.323816
     34          1           0       -0.289717    2.069239    0.070839
 ---------------------------------------------------------------------

 SCF Done:  E(RB3LYP) =  -1096.40036134     A.U. after   11 cycles

 The electronic state is 1-A.
 Alpha  occ. eigenvalues -- -101.55685 -19.14605 -14.31249 -10.28042 -10.26214
 Alpha  occ. eigenvalues --  -10.22260 -10.22039 -10.21478 -10.21423 -10.21136
 Alpha  occ. eigenvalues --  -10.21049 -10.20843 -10.18159 -10.16970 -10.16874
 Alpha  occ. eigenvalues --  -10.16825  -9.47316  -7.23702  -7.22750  -7.22715
 Alpha  occ. eigenvalues --   -1.04497  -0.90615  -0.89928  -0.84721  -0.79543
 Alpha  occ. eigenvalues --   -0.77387  -0.74860  -0.72936  -0.68491  -0.68253
 Alpha  occ. eigenvalues --   -0.66427  -0.62327  -0.61436  -0.55657  -0.54473
 Alpha  occ. eigenvalues --   -0.52721  -0.49197  -0.48129  -0.46272  -0.46074
 Alpha  occ. eigenvalues --   -0.44851  -0.44117  -0.43779  -0.42801  -0.42558
 Alpha  occ. eigenvalues --   -0.41635  -0.40988  -0.39698  -0.38549  -0.38152
 Alpha  occ. eigenvalues --   -0.37475  -0.37252  -0.36521  -0.36338  -0.35823
 Alpha  occ. eigenvalues --   -0.34412  -0.33726  -0.32987  -0.32237  -0.32003
 Alpha  occ. eigenvalues --   -0.26997  -0.25904  -0.25749  -0.21894
 Alpha virt. eigenvalues --   -0.06625  -0.02006   0.02287   0.03047   0.07512
 Alpha virt. eigenvalues --    0.09709   0.12042   0.12658   0.13246   0.14025
 Alpha virt. eigenvalues --    0.15166   0.15491   0.15848   0.16167   0.16700

 Mulliken charges:
               1
     1  C   -0.472418
     2  C   -0.062238
     3  N   -0.591053
     4  C    0.211980
     5  C   -0.445759
     6  C   -0.454671
     7  C   -0.461995
     8  C    0.431493
     9  O   -0.518006
    10  C    0.075299
    11  C   -0.155481
    12  C   -0.075949
    13  Cl  -0.036923
    14  C   -0.121144
    15  C   -0.146189
    16  C   -0.180381
    17  H    0.162466
    18  H    0.160069
    19  H    0.172998
    20  H    0.157322
    21  H    0.322890
    22  H    0.147098
    23  H    0.147064
    24  H    0.146931
    25  H    0.145075
    26  H    0.144705
    27  H    0.148245
    28  H    0.148418
    29  H    0.145769
    30  H    0.149736
    31  H    0.176756
    32  H    0.181514
    33  H    0.173265
    34  H    0.173114
 Sum of Mulliken charges =  -0.00000

 Dipole moment (field-independent basis, Debye):
    X=              2.2535    Y=              5.7039    Z=              0.9068  Tot=              6.1996
 Quadrupole moment (field-independent basis, Debye-Ang):
   XX=           -100.4577   YY=           -103.2244   ZZ=           -102.8638
   XY=             -5.4111   XZ=              2.8664   YZ=             -1.4122

 Normal termination of Gaussian 16 at Wed Mar  2 02:42:24 2022.
