 Gaussian 16, Revision A.03,

 ----------------------------------------------------------------------
 #p b3lyp/6-31G(d) opt=(MaxStep=10,MaxCycles=1000) freq scf=(MaxCycle=2
 000,NoVarAcc,NoIncFock) scrf=(iefpcm,read,solvent=water)
 ----------------------------------------------------------------------

 ------------
 60.n.pdb.xyz
 ------------
 Symbolic Z-matrix:
 Charge =  0 Multiplicity = 1

 SCF Done:  E(RB3LYP) =  -543.355355959     A.U. after   12 cycles
 SCF Done:  E(RB3LYP) =  -543.356536521     A.U. after   10 cycles
 SCF Done:  E(RB3LYP) =  -543.356611674     A.U. after   10 cycles
 SCF Done:  E(RB3LYP) =  -543.356742130     A.U. after    9 cycles
 SCF Done:  E(RB3LYP) =  -543.356739063     A.U. after    9 cycles
 SCF Done:  E(RB3LYP) =  -543.356768565     A.U. after   10 cycles
 SCF Done:  E(RB3LYP) =  -543.356900076     A.U. after   10 cycles
 SCF Done:  E(RB3LYP) =  -543.357016197     A.U. after   10 cycles
 SCF Done:  E(RB3LYP) =  -543.356914156     A.U. after   11 cycles
 SCF Done:  E(RB3LYP) =  -543.356971520     A.U. after   11 cycles
 SCF Done:  E(RB3LYP) =  -543.357610768     A.U. after    9 cycles
 SCF Done:  E(RB3LYP) =  -543.357594087     A.U. after    9 cycles
 SCF Done:  E(RB3LYP) =  -543.357464367     A.U. after    9 cycles
 SCF Done:  E(RB3LYP) =  -543.357603296     A.U. after    9 cycles
 SCF Done:  E(RB3LYP) =  -543.357610929     A.U. after    8 cycles
 SCF Done:  E(RB3LYP) =  -543.357628210     A.U. after    8 cycles
 SCF Done:  E(RB3LYP) =  -543.357631985     A.U. after    7 cycles
 Optimization completed.
    -- Stationary point found.
 Normal termination of Gaussian 16 at Tue Mar  1 06:23:16 2022.

 --------------------------------------------------------------------
 #P Geom=AllCheck Guess=TCheck SCRF=Check GenChk RB3LYP/6-31G(d) Freq
 --------------------------------------------------------------------

 Structure from the checkpoint file:  "60.n.pdb.xyz.mst.wat.chk"
 ------------
 60.n.pdb.xyz
 ------------
 Charge =  0 Multiplicity = 1

 SCF Done:  E(RB3LYP) =  -543.357631985     A.U. after    1 cycles

  Exact polarizability: 211.637  -0.948 189.495   1.504 -17.362 115.851
 Approx polarizability: 219.109   0.309 215.142   1.466 -25.551 127.016

 ******    1 imaginary frequencies (negative Signs) ******

                      1                      2                      3
                      A                      A                      A
 Frequencies --     -5.2612                54.0753                94.4679
 Red. masses --      2.7619                 2.8162                 3.8776
 Frc consts  --      0.0000                 0.0049                 0.0204
 IR Inten    --      0.0979                 0.7870                 3.4646

                      4                      5                      6
                      A                      A                      A
 Frequencies --    143.5968               162.3725               220.4340
 Red. masses --      3.0616                 2.9759                 2.6194
 Frc consts  --      0.0372                 0.0462                 0.0750
 IR Inten    --      2.6847                 1.0442                 3.2599

                      7                      8                      9
                      A                      A                      A
 Frequencies --    233.8149               251.1446               268.6977
 Red. masses --      1.3824                 1.3852                 1.5850
 Frc consts  --      0.0445                 0.0515                 0.0674
 IR Inten    --      0.3834                 0.5469                 5.2144

                     10                     11                     12
                      A                      A                      A
 Frequencies --    276.9372               289.3023               293.8871
 Red. masses --      1.4302                 1.1573                 1.6856
 Frc consts  --      0.0646                 0.0571                 0.0858
 IR Inten    --      5.2286                 2.2591                 3.0655

                     13                     14                     15
                      A                      A                      A
 Frequencies --    319.8485               332.4096               365.7300
 Red. masses --      2.6396                 1.9272                 1.3853
 Frc consts  --      0.1591                 0.1255                 0.1092
 IR Inten    --      0.8073                49.5089               113.0144

                     16                     17                     18
                      A                      A                      A
 Frequencies --    410.3557               417.2949               440.2877
 Red. masses --      3.4521                 3.0610                 2.4876
 Frc consts  --      0.3425                 0.3140                 0.2841
 IR Inten    --      1.0640                 5.0618                 7.7520

                     19                     20                     21
                      A                      A                      A
 Frequencies --    518.6911               533.3655               563.4260
 Red. masses --      3.9942                 4.1366                 3.7043
 Frc consts  --      0.6331                 0.6933                 0.6928
 IR Inten    --      0.5136                 3.4177                 0.4039

                     22                     23                     24
                      A                      A                      A
 Frequencies --    584.3916               631.9694               674.4081
 Red. masses --      3.2342                 3.7457                 3.5765
 Frc consts  --      0.6508                 0.8814                 0.9584
 IR Inten    --     14.6678                 0.7727                 6.0454

                     25                     26                     27
                      A                      A                      A
 Frequencies --    758.6264               801.3457               811.5134
 Red. masses --      2.3587                 1.8933                 3.4825
 Frc consts  --      0.7998                 0.7163                 1.3513
 IR Inten    --     33.1000                24.2519                 9.6762

                     28                     29                     30
                      A                      A                      A
 Frequencies --    840.0055               898.7000               919.1030
 Red. masses --      5.4035                 2.5476                 1.3594
 Frc consts  --      2.2464                 1.2123                 0.6766
 IR Inten    --     27.4318                 5.1038                 0.2326

                     31                     32                     33
                      A                      A                      A
 Frequencies --    929.3609               939.5241               953.6478
 Red. masses --      1.1698                 1.8043                 1.3584
 Frc consts  --      0.5953                 0.9384                 0.7279
 IR Inten    --      3.6282                11.2233                 9.7319

                     34                     35                     36
                      A                      A                      A
 Frequencies --    964.4969               969.3756               981.9549
 Red. masses --      1.2537                 1.4642                 1.4451
 Frc consts  --      0.6872                 0.8106                 0.8210
 IR Inten    --      2.6284                 1.5218                 1.5369

                     37                     38                     39
                      A                      A                      A
 Frequencies --   1073.9025              1088.5999              1123.3415
 Red. masses --      1.8111                 1.4917                 2.2238
 Frc consts  --      1.2306                 1.0415                 1.6534
 IR Inten    --     17.2014                13.5992                11.5160

                     40                     41                     42
                      A                      A                      A
 Frequencies --   1135.4815              1148.9537              1174.7454
 Red. masses --      2.2341                 1.9972                 2.0330
 Frc consts  --      1.6971                 1.5534                 1.6530
 IR Inten    --     40.5435                16.6747                61.1287

                     43                     44                     45
                      A                      A                      A
 Frequencies --   1178.7841              1202.3572              1230.7015
 Red. masses --      1.7630                 1.1482                 1.9542
 Frc consts  --      1.4433                 0.9780                 1.7439
 IR Inten    --     69.6100                32.8975                22.6543

                     46                     47                     48
                      A                      A                      A
 Frequencies --   1241.0688              1293.7305              1312.7500
 Red. masses --      2.7040                 2.3414                 2.3689
 Frc consts  --      2.4539                 2.3089                 2.4053
 IR Inten    --    145.2616                36.7641                30.9713

                     49                     50                     51
                      A                      A                      A
 Frequencies --   1344.9679              1353.7911              1357.4723
 Red. masses --      1.5634                 1.7413                 1.3962
 Frc consts  --      1.6663                 1.8803                 1.5158
 IR Inten    --     51.8145                 7.0899                 8.1408

                     52                     53                     54
                      A                      A                      A
 Frequencies --   1382.9627              1398.3713              1421.3425
 Red. masses --      1.6128                 1.2647                 1.2650
 Frc consts  --      1.8174                 1.4571                 1.5057
 IR Inten    --     23.0909                 4.9093                 5.2319

                     55                     56                     57
                      A                      A                      A
 Frequencies --   1427.5842              1429.2768              1442.8764
 Red. masses --      1.2585                 1.3777                 1.2494
 Frc consts  --      1.5111                 1.6582                 1.5326
 IR Inten    --      0.6868                12.9089                 3.0812

                     58                     59                     60
                      A                      A                      A
 Frequencies --   1485.1560              1497.1691              1501.5865
 Red. masses --      1.9039                 1.0802                 1.1864
 Frc consts  --      2.4743                 1.4266                 1.5761
 IR Inten    --    135.5344                 8.1817                13.9990

                     61                     62                     63
                      A                      A                      A
 Frequencies --   1512.1342              1514.2300              1518.8979
 Red. masses --      1.1158                 1.0455                 1.1159
 Frc consts  --      1.5032                 1.4124                 1.5168
 IR Inten    --     11.8151                 4.1758                 2.0639

                     64                     65                     66
                      A                      A                      A
 Frequencies --   1522.1237              1525.7323              1532.0972
 Red. masses --      1.1690                 1.3140                 1.2718
 Frc consts  --      1.5957                 1.8022                 1.7589
 IR Inten    --      4.8041                10.3040                12.1148

                     67                     68                     69
                      A                      A                      A
 Frequencies --   1539.1007              1646.8848              1657.1031
 Red. masses --      1.1056                 5.3231                 6.2981
 Frc consts  --      1.5431                 8.5063                10.1896
 IR Inten    --      2.7070                16.9645                 3.1167

                     70                     71                     72
                      A                      A                      A
 Frequencies --   3006.0913              3044.7783              3054.0158
 Red. masses --      1.0825                 1.0356                 1.0360
 Frc consts  --      5.7633                 5.6568                 5.6929
 IR Inten    --     66.6756                52.4219                45.5832

                     73                     74                     75
                      A                      A                      A
 Frequencies --   3059.6485              3064.5284              3067.6493
 Red. masses --      1.0348                 1.0831                 1.0356
 Frc consts  --      5.7076                 5.9931                 5.7419
 IR Inten    --     47.2393                13.6225                36.6515

                     76                     77                     78
                      A                      A                      A
 Frequencies --   3109.2610              3118.9783              3122.8150
 Red. masses --      1.1031                 1.1015                 1.1031
 Frc consts  --      6.2829                 6.3131                 6.3382
 IR Inten    --     37.8355               108.5443                59.6763

                     79                     80                     81
                      A                      A                      A
 Frequencies --   3126.8206              3128.8329              3132.6529
 Red. masses --      1.1034                 1.1019                 1.1020
 Frc consts  --      6.3562                 6.3558                 6.3717
 IR Inten    --     25.7961                51.3523                97.6458

                     82                     83                     84
                      A                      A                      A
 Frequencies --   3136.0716              3138.6748              3204.4409
 Red. masses --      1.1022                 1.1031                 1.0858
 Frc consts  --      6.3866                 6.4025                 6.5693
 IR Inten    --     52.1393                53.2122                 7.2848

                     85                     86                     87
                      A                      A                      A
 Frequencies --   3220.6270              3229.4565              3742.0948
 Red. masses --      1.0899                 1.0942                 1.0653
 Frc consts  --      6.6605                 6.7238                 8.7895
 IR Inten    --     30.9983                42.0835               151.5078

 - Thermochemistry -
 -------------------
 Temperature   298.150 Kelvin.  Pressure   1.00000 Atm.
 Atom     1 has atomic number  6 and mass  12.00000

 Molecular mass:   178.13577 amu.
 Principal axes and moments of inertia in atomic units:
                           1         2         3
     Eigenvalues --  1234.155523566.091814326.33808
           X            1.00000  -0.00228   0.00054
           Y            0.00227   0.99982   0.01883
           Z           -0.00058  -0.01882   0.99982
 This molecule is an asymmetric top.
 Rotational symmetry number  1.
 Warning -- assumption of classical behavior for rotation
           may cause significant error
 Rotational temperatures (Kelvin)      0.07018     0.02429     0.02002
 Rotational constants (GHZ):           1.46233     0.50608     0.41715
    1 imaginary frequencies ignored.
 Zero-point vibrational energy     722372.7 (Joules/Mol)
                                  172.65121 (Kcal/Mol)
 Warning -- explicit consideration of  21 degrees of freedom as
           vibrations may cause significant error
 Vibrational temperatures:     77.80   135.92   206.60   233.62   317.16
          (Kelvin)            336.41   361.34   386.60   398.45   416.24
                              422.84   460.19   478.26   526.20   590.41
                              600.39   633.48   746.28   767.39   810.64
                              840.81   909.26   970.32  1091.49  1152.96
                             1167.59  1208.58  1293.03  1322.38  1337.14
                             1351.77  1372.09  1387.70  1394.72  1412.81
                             1545.11  1566.25  1616.24  1633.70  1653.09
                             1690.20  1696.01  1729.92  1770.70  1785.62
                             1861.39  1888.75  1935.11  1947.80  1953.10
                             1989.77  2011.94  2044.99  2053.98  2056.41
                             2075.98  2136.81  2154.09  2160.45  2175.62
                             2178.64  2185.36  2190.00  2195.19  2204.35
                             2214.42  2369.50  2384.20  4325.09  4380.76
                             4394.05  4402.15  4409.17  4413.66  4473.53
                             4487.51  4493.03  4498.80  4501.69  4507.19
                             4512.11  4515.85  4610.48  4633.76  4646.47
                             5384.04

 Zero-point correction=                           0.275137 (Hartree/Particle)
 Thermal correction to Energy=                    0.288150
 Thermal correction to Enthalpy=                  0.289094
 Thermal correction to Gibbs Free Energy=         0.236962
 Sum of electronic and zero-point Energies=           -543.082495
 Sum of electronic and thermal Energies=              -543.069482
 Sum of electronic and thermal Enthalpies=            -543.068538
 Sum of electronic and thermal Free Energies=         -543.120670

                     E (Thermal)             CV                S
                      KCal/Mol        Cal/Mol-Kelvin    Cal/Mol-Kelvin
 Total                  180.817             51.886            109.720
 Electronic               0.000              0.000              0.000
 Translational            0.889              2.981             41.439
 Rotational               0.889              2.981             31.321
 Vibrational            179.039             45.924             36.960
 Vibration     1          0.596              1.976              4.662
 Vibration     2          0.603              1.953              3.565
 Vibration     3          0.616              1.910              2.755
 Vibration     4          0.622              1.889              2.522
 Vibration     5          0.647              1.810              1.956
 Vibration     6          0.654              1.789              1.849
 Vibration     7          0.663              1.761              1.723
 Vibration     8          0.673              1.731              1.605
 Vibration     9          0.678              1.716              1.553
 Vibration    10          0.686              1.694              1.478
 Vibration    11          0.689              1.685              1.451
 Vibration    12          0.706              1.636              1.311
 Vibration    13          0.714              1.611              1.248
 Vibration    14          0.739              1.543              1.098
 Vibration    15          0.775              1.448              0.925
 Vibration    16          0.780              1.433              0.901
 Vibration    17          0.800              1.382              0.826
 Vibration    18          0.874              1.209              0.613
 Vibration    19          0.888              1.176              0.580
 Vibration    20          0.919              1.110              0.517
 Vibration    21          0.941              1.065              0.477

                           ! Non-Optimized Parameters !
 Normal termination of Gaussian 16 at Tue Mar  1 06:46:17 2022.

 ------------------------------------------
 #p b3lyp/6-31G(d) geom=allcheck guess=read
 ------------------------------------------

 Structure from the checkpoint file:  "60.n.pdb.xyz.mst.wat.chk"
 ------------
 60.n.pdb.xyz
 ------------
 Charge =  0 Multiplicity = 1

 SCF Done:  E(RB3LYP) =  -543.350328374     A.U. after   11 cycles
 Normal termination of Gaussian 16 at Tue Mar  1 06:48:11 2022.
 Gaussian 16:  ES64L-G16RevA.03 25-Dec-2016

 ----------------------------------------------------------------------
 #p b3lyp/6-31G(d) scrf=(iefpcm,read,solvent=water) geom=allcheck guess
 =read
 ----------------------------------------------------------------------

 Structure from the checkpoint file:  "60.n.pdb.xyz.mst.wat.chk"
 ------------
 60.n.pdb.xyz
 ------------
 Charge =  0 Multiplicity = 1

                         Standard orientation:
 ---------------------------------------------------------------------
 Center     Atomic      Atomic             Coordinates (Angstroms)
 Number     Number       Type             X           Y           Z
 ---------------------------------------------------------------------
      1          6           0        3.746343    0.423522    0.568837
      2          6           0        2.545357   -0.490501    0.300417
      3          6           0        2.826512   -1.399026   -0.913946
      4          6           0        1.231902    0.263544    0.120670
      5          6           0        1.201897    1.611321   -0.256861
      6          6           0       -0.001220    2.283683   -0.461713
      7          6           0       -1.207239    1.606441   -0.283466
      8          6           0       -1.234907    0.261882    0.097104
      9          6           0       -2.535482   -0.508474    0.279132
     10          6           0       -2.870502   -1.326159   -0.984328
     11          6           0       -3.719891    0.381956    0.673328
     12          6           0       -0.003242   -0.394738    0.291114
     13          8           0       -0.083174   -1.719419    0.646257
     14          1           0        3.978598    1.050105   -0.297899
     15          1           0        3.570948    1.081001    1.425427
     16          1           0        4.632176   -0.182011    0.781462
     17          1           0        2.453881   -1.133595    1.187890
     18          1           0        1.996904   -2.084996   -1.107848
     19          1           0        3.729437   -1.995545   -0.749950
     20          1           0        2.976876   -0.793047   -1.813350
     21          1           0        2.138802    2.140226   -0.389811
     22          1           0        0.001210    3.328814   -0.753076
     23          1           0       -2.144804    2.130443   -0.433427
     24          1           0       -2.368996   -1.224295    1.091237
     25          1           0       -3.774119   -1.925269   -0.827698
     26          1           0       -3.048466   -0.663365   -1.838254
     27          1           0       -2.053765   -2.004654   -1.244931
     28          1           0       -3.990701    1.076965   -0.128352
     29          1           0       -4.599494   -0.235909    0.880051
     30          1           0       -3.501373    0.971327    1.569459
     31          1           0        0.791102   -2.061551    0.897285
 ---------------------------------------------------------------------

 SCF Done:  E(RB3LYP) =  -543.356768156     A.U. after   10 cycles

 The electronic state is 1-A.
 Alpha  occ. eigenvalues --  -19.17334 -10.24258 -10.19867 -10.19008 -10.18792
 Alpha  occ. eigenvalues --  -10.18622 -10.18277 -10.18192 -10.17882 -10.17472
 Alpha  occ. eigenvalues --  -10.17355 -10.16968 -10.16923  -1.05184  -0.85228
 Alpha  occ. eigenvalues --   -0.81140  -0.78321  -0.72670  -0.72064  -0.68383
 Alpha  occ. eigenvalues --   -0.67846  -0.63263  -0.60609  -0.58341  -0.54259
 Alpha  occ. eigenvalues --   -0.53305  -0.48929  -0.46754  -0.44762  -0.44191
 Alpha  occ. eigenvalues --   -0.43467  -0.42879  -0.41918  -0.39610  -0.39517
 Alpha  occ. eigenvalues --   -0.38826  -0.38007  -0.37736  -0.37035  -0.36088
 Alpha  occ. eigenvalues --   -0.34699  -0.34283  -0.33718  -0.33088  -0.32497
 Alpha  occ. eigenvalues --   -0.31789  -0.31052  -0.23790  -0.21517
 Alpha virt. eigenvalues --    0.00350   0.01331   0.07339   0.09977   0.10598
 Alpha virt. eigenvalues --    0.12898   0.13863   0.14464   0.15045   0.15524
 Alpha virt. eigenvalues --    0.15773   0.15830   0.16798   0.18262   0.18863

 Mulliken charges:
               1
     1  C   -0.460164
     2  C   -0.193099
     3  C   -0.442735
     4  C    0.156498
     5  C   -0.229933
     6  C   -0.161344
     7  C   -0.228153
     8  C    0.127453
     9  C   -0.131954
    10  C   -0.448436
    11  C   -0.461453
    12  C    0.198268
    13  O   -0.679772
    14  H    0.154792
    15  H    0.153779
    16  H    0.151851
    17  H    0.145228
    18  H    0.148646
    19  H    0.151902
    20  H    0.151655
    21  H    0.139526
    22  H    0.137682
    23  H    0.138217
    24  H    0.142234
    25  H    0.144111
    26  H    0.142599
    27  H    0.152806
    28  H    0.149696
    29  H    0.146733
    30  H    0.148091
    31  H    0.455273
 Sum of Mulliken charges =  -0.00000

 Dipole moment (field-independent basis, Debye):
    X=              2.0253    Y=             -0.7790    Z=              0.5376  Tot=              2.2356
 Quadrupole moment (field-independent basis, Debye-Ang):
   XX=            -72.6469   YY=            -77.0165   ZZ=            -81.6594
   XY=             -3.6830   XZ=              1.6207   YZ=             -2.8289

 Normal termination of Gaussian 16 at Tue Mar  1 06:50:17 2022.
