 Gaussian 16, Revision A.03,

 ----------------------------------------------------------------------
 #p b3lyp/6-31G(d) opt=(MaxStep=10,MaxCycles=1000) freq scf=(MaxCycle=2
 000,NoVarAcc,NoIncFock) scrf=(iefpcm,read,solvent=water)
 ----------------------------------------------------------------------

 ------------
 61.n.pdb.xyz
 ------------
 Symbolic Z-matrix:
 Charge =  0 Multiplicity = 1

 SCF Done:  E(RB3LYP) =  -1298.38334474     A.U. after   13 cycles
 SCF Done:  E(RB3LYP) =  -1298.38714580     A.U. after   11 cycles
 SCF Done:  E(RB3LYP) =  -1298.38500611     A.U. after   11 cycles
 SCF Done:  E(RB3LYP) =  -1298.38864411     A.U. after   11 cycles
 SCF Done:  E(RB3LYP) =  -1298.38884908     A.U. after   10 cycles
 SCF Done:  E(RB3LYP) =  -1298.38915998     A.U. after   10 cycles
 SCF Done:  E(RB3LYP) =  -1298.38928682     A.U. after   10 cycles
 SCF Done:  E(RB3LYP) =  -1298.38935976     A.U. after    9 cycles
 SCF Done:  E(RB3LYP) =  -1298.38886865     A.U. after   11 cycles
 SCF Done:  E(RB3LYP) =  -1298.38943599     A.U. after   10 cycles
 SCF Done:  E(RB3LYP) =  -1298.38961379     A.U. after    8 cycles
 SCF Done:  E(RB3LYP) =  -1298.38957684     A.U. after    8 cycles
 SCF Done:  E(RB3LYP) =  -1298.38957808     A.U. after    7 cycles
 SCF Done:  E(RB3LYP) =  -1298.38960268     A.U. after    9 cycles
 SCF Done:  E(RB3LYP) =  -1298.38957781     A.U. after    9 cycles
 SCF Done:  E(RB3LYP) =  -1298.38960394     A.U. after    9 cycles
 SCF Done:  E(RB3LYP) =  -1298.38957777     A.U. after    9 cycles
 Optimization completed on the basis of negligible forces.
    -- Stationary point found.
 Normal termination of Gaussian 16 at Tue Mar  1 10:08:17 2022.

 --------------------------------------------------------------------
 #P Geom=AllCheck Guess=TCheck SCRF=Check GenChk RB3LYP/6-31G(d) Freq
 --------------------------------------------------------------------

 Structure from the checkpoint file:  "61.n.pdb.xyz.mst.wat.chk"
 ------------
 61.n.pdb.xyz
 ------------
 Charge =  0 Multiplicity = 1

 SCF Done:  E(RB3LYP) =  -1298.38957777     A.U. after    1 cycles

  Exact polarizability: 327.259  11.426 292.411   0.648 -36.202 158.624
 Approx polarizability: 368.988  21.879 323.799   1.796 -45.431 191.837

                      1                      2                      3
                      A                      A                      A
 Frequencies --     35.8512                46.1530                68.1877
 Red. masses --      4.1063                 7.0079                 6.0261
 Frc consts  --      0.0031                 0.0088                 0.0165
 IR Inten    --      1.0169                 2.2154                 2.5556

                      4                      5                      6
                      A                      A                      A
 Frequencies --     70.5794                99.6914               139.6969
 Red. masses --      7.4858                 7.4487                 7.0851
 Frc consts  --      0.0220                 0.0436                 0.0815
 IR Inten    --      0.0555                 1.1997                 1.3631

                      7                      8                      9
                      A                      A                      A
 Frequencies --    180.3309               194.0817               221.8607
 Red. masses --      6.7865                 5.9347                 6.5020
 Frc consts  --      0.1300                 0.1317                 0.1886
 IR Inten    --      3.4341                 2.9673                 6.6340

                     10                     11                     12
                      A                      A                      A
 Frequencies --    253.3033               296.3919               318.1939
 Red. masses --      5.5160                 2.9069                 6.2155
 Frc consts  --      0.2085                 0.1505                 0.3708
 IR Inten    --     15.7566                53.9007                 6.9453

                     13                     14                     15
                      A                      A                      A
 Frequencies --    326.1346               334.7187               375.2674
 Red. masses --      8.6204                 3.3190                 5.1149
 Frc consts  --      0.5402                 0.2191                 0.4244
 IR Inten    --     18.9197                47.0936                25.0900

                     16                     17                     18
                      A                      A                      A
 Frequencies --    394.1216               398.6087               417.0473
 Red. masses --      2.5427                 4.6350                 3.0592
 Frc consts  --      0.2327                 0.4339                 0.3135
 IR Inten    --     43.9362                37.9891                 3.4036

                     19                     20                     21
                      A                      A                      A
 Frequencies --    419.4694               465.7988               506.1067
 Red. masses --      4.0570                 4.9260                 3.9790
 Frc consts  --      0.4206                 0.6297                 0.6005
 IR Inten    --     22.0742                 4.3776                 7.5236

                     22                     23                     24
                      A                      A                      A
 Frequencies --    517.4883               540.7311               596.2737
 Red. masses --      6.8982                 4.1505                 2.7601
 Frc consts  --      1.0884                 0.7150                 0.5782
 IR Inten    --      8.5370                16.0160                90.3731

                     25                     26                     27
                      A                      A                      A
 Frequencies --    620.9402               631.1774               658.4683
 Red. masses --      2.0271                 6.4543                 5.4405
 Frc consts  --      0.4605                 1.5150                 1.3898
 IR Inten    --     83.4934                 0.3340                15.4397

                     28                     29                     30
                      A                      A                      A
 Frequencies --    669.1819               693.2923               709.2079
 Red. masses --      4.3923                 6.4611                 1.8231
 Frc consts  --      1.1589                 1.8297                 0.5403
 IR Inten    --      9.7462                26.9964                52.8178

                     31                     32                     33
                      A                      A                      A
 Frequencies --    719.2591               727.6735               754.9997
 Red. masses --      5.2205                 4.8260                 2.9375
 Frc consts  --      1.5912                 1.5056                 0.9865
 IR Inten    --     24.5340                73.3367                10.8543

                     34                     35                     36
                      A                      A                      A
 Frequencies --    799.5465               824.0445               841.4653
 Red. masses --      2.6618                 4.0153                 1.8099
 Frc consts  --      1.0026                 1.6065                 0.7551
 IR Inten    --      5.7815                53.5657                54.6646

                     37                     38                     39
                      A                      A                      A
 Frequencies --    863.3546               866.0873               901.8609
 Red. masses --      1.9247                 2.0332                 1.4936
 Frc consts  --      0.8453                 0.8986                 0.7157
 IR Inten    --     11.1713                 1.2194                15.7937

                     40                     41                     42
                      A                      A                      A
 Frequencies --    934.3006               946.8790               957.6928
 Red. masses --      4.1296                 1.5349                 4.2584
 Frc consts  --      2.1239                 0.8108                 2.3012
 IR Inten    --     44.4428                 1.8154                23.8691

                     43                     44                     45
                      A                      A                      A
 Frequencies --    973.6819               984.6903              1011.8719
 Red. masses --      1.3493                 1.3611                 1.2746
 Frc consts  --      0.7537                 0.7775                 0.7689
 IR Inten    --      0.8839                 3.4519                 0.2843

                     46                     47                     48
                      A                      A                      A
 Frequencies --   1016.2095              1044.3959              1053.9246
 Red. masses --      6.0187                 6.9421                 2.1328
 Frc consts  --      3.6620                 4.4614                 1.3958
 IR Inten    --      4.1790               100.8200                 3.4223

                     49                     50                     51
                      A                      A                      A
 Frequencies --   1106.8677              1120.9555              1145.2406
 Red. masses --      1.5384                 2.1588                 3.1556
 Frc consts  --      1.1105                 1.5982                 2.4385
 IR Inten    --      8.0720                81.4231               492.5033

                     52                     53                     54
                      A                      A                      A
 Frequencies --   1159.8156              1188.4128              1196.6849
 Red. masses --      2.3590                 1.0996                 1.2446
 Frc consts  --      1.8697                 0.9150                 1.0501
 IR Inten    --     23.3607                 0.5204                 4.6093

                     55                     56                     57
                      A                      A                      A
 Frequencies --   1203.9157              1245.1668              1264.1322
 Red. masses --      1.5871                 2.2012                 1.7902
 Frc consts  --      1.3553                 2.0108                 1.6855
 IR Inten    --     16.9026                43.4033                60.7168

                     58                     59                     60
                      A                      A                      A
 Frequencies --   1288.5711              1315.5957              1341.8461
 Red. masses --      1.4710                 3.4099                 1.7953
 Frc consts  --      1.4391                 3.4772                 1.9045
 IR Inten    --     38.9612               137.8856                12.2324

                     61                     62                     63
                      A                      A                      A
 Frequencies --   1345.9515              1361.2610              1366.7411
 Red. masses --      2.3199                 4.3151                 2.4738
 Frc consts  --      2.4761                 4.7111                 2.7226
 IR Inten    --    192.8566                11.2448                46.5963

                     64                     65                     66
                      A                      A                      A
 Frequencies --   1367.6499              1419.2006              1459.5917
 Red. masses --      2.2686                 2.5407                 1.4950
 Frc consts  --      2.5001                 3.0151                 1.8766
 IR Inten    --    128.9980                23.2523                65.6480

                     67                     68                     69
                      A                      A                      A
 Frequencies --   1491.2445              1502.0115              1528.6879
 Red. masses --      2.2217                 2.6104                 2.1398
 Frc consts  --      2.9109                 3.4699                 2.9462
 IR Inten    --     13.7499               140.1749                96.3859

                     70                     71                     72
                      A                      A                      A
 Frequencies --   1538.0683              1614.2497              1632.8912
 Red. masses --      2.3000                 6.1814                 5.7316
 Frc consts  --      3.2058                 9.4902                 9.0041
 IR Inten    --      2.0204                54.2633                35.2507

                     73                     74                     75
                      A                      A                      A
 Frequencies --   1649.7002              1655.1755              1666.6545
 Red. masses --      6.4198                 6.3198                 8.8361
 Frc consts  --     10.2939                10.2010                14.4612
 IR Inten    --     13.7044                86.9521               167.2508

                     76                     77                     78
                      A                      A                      A
 Frequencies --   1755.3893              3041.5047              3205.1696
 Red. masses --      8.2055                 1.0834                 1.0858
 Frc consts  --     14.8971                 5.9050                 6.5722
 IR Inten    --   1171.4173                27.5488                 0.6827

                     79                     80                     81
                      A                      A                      A
 Frequencies --   3213.2949              3223.3101              3226.0569
 Red. masses --      1.0892                 1.0928                 1.0905
 Frc consts  --      6.6260                 6.6897                 6.6867
 IR Inten    --     15.8284                45.6186                 9.5595

                     82                     83                     84
                      A                      A                      A
 Frequencies --   3232.0162              3235.8490              3251.2477
 Red. masses --      1.0937                 1.0950                 1.0938
 Frc consts  --      6.7312                 6.7555                 6.8124
 IR Inten    --     33.9123                10.4019                 3.6312

                     85                     86                     87
                      A                      A                      A
 Frequencies --   3252.0878              3558.8997              3622.0093
 Red. masses --      1.0920                 1.0779                 1.0649
 Frc consts  --      6.8044                 8.0437                 8.2308
 IR Inten    --      1.4094               149.5803               132.2215

 - Thermochemistry -
 -------------------
 Temperature   298.150 Kelvin.  Pressure   1.00000 Atm.
 Atom     1 has atomic number  8 and mass  15.99491

 Molecular mass:   286.05091 amu.
 Principal axes and moments of inertia in atomic units:
                           1         2         3
     Eigenvalues --  5779.594586111.46960**********
           X            0.81105  -0.58493  -0.00727
           Y            0.58484   0.81107  -0.01096
           Z            0.01230   0.00464   0.99991
 This molecule is an asymmetric top.
 Rotational symmetry number  1.
 Warning -- assumption of classical behavior for rotation
           may cause significant error
 Rotational temperatures (Kelvin)      0.01499     0.01417     0.00820
 Rotational constants (GHZ):           0.31226     0.29530     0.17080
 Zero-point vibrational energy     612568.2 (Joules/Mol)
                                  146.40732 (Kcal/Mol)
 Warning -- explicit consideration of  24 degrees of freedom as
           vibrations may cause significant error
 Vibrational temperatures:     51.58    66.40    98.11   101.55   143.43
          (Kelvin)            200.99   259.46   279.24   319.21   364.45
                              426.44   457.81   469.23   481.59   539.93
                              567.05   573.51   600.04   603.52   670.18
                              728.17   744.55   777.99   857.90   893.39
                              908.12   947.39   962.80   997.49  1020.39
                             1034.85  1046.96  1086.28  1150.37  1185.62
                             1210.68  1242.17  1246.11  1297.58  1344.25
                             1362.35  1377.91  1400.91  1416.75  1455.86
                             1462.10  1502.65  1516.36  1592.54  1612.80
                             1647.75  1668.72  1709.86  1721.76  1732.17
                             1791.52  1818.80  1853.97  1892.85  1930.62
                             1936.52  1958.55  1966.44  1967.74  2041.91
                             2100.03  2145.57  2161.06  2199.44  2212.94
                             2322.55  2349.37  2373.55  2381.43  2397.94
                             2525.61  4376.05  4611.52  4623.21  4637.62
                             4641.58  4650.15  4655.66  4677.82  4679.03
                             5120.46  5211.26

 Zero-point correction=                           0.233315 (Hartree/Particle)
 Thermal correction to Energy=                    0.249279
 Thermal correction to Enthalpy=                  0.250223
 Thermal correction to Gibbs Free Energy=         0.188933
 Sum of electronic and zero-point Energies=          -1298.156263
 Sum of electronic and thermal Energies=             -1298.140299
 Sum of electronic and thermal Enthalpies=           -1298.139355
 Sum of electronic and thermal Free Energies=        -1298.200645

                     E (Thermal)             CV                S
                      KCal/Mol        Cal/Mol-Kelvin    Cal/Mol-Kelvin
 Total                  156.425             63.126            128.995
 Electronic               0.000              0.000              0.000
 Translational            0.889              2.981             42.851
 Rotational               0.889              2.981             34.278
 Vibrational            154.647             57.164             51.866
 Vibration     1          0.594              1.982              5.476
 Vibration     2          0.595              1.979              4.976
 Vibration     3          0.598              1.969              4.205
 Vibration     4          0.598              1.968              4.137
 Vibration     5          0.604              1.949              3.460
 Vibration     6          0.615              1.914              2.808
 Vibration     7          0.629              1.866              2.325
 Vibration     8          0.635              1.848              2.188
 Vibration     9          0.648              1.808              1.944
 Vibration    10          0.664              1.757              1.707
 Vibration    11          0.690              1.680              1.437
 Vibration    12          0.705              1.639              1.319
 Vibration    13          0.710              1.623              1.279
 Vibration    14          0.716              1.606              1.237
 Vibration    15          0.746              1.523              1.058
 Vibration    16          0.761              1.483              0.985
 Vibration    17          0.765              1.473              0.968
 Vibration    18          0.780              1.433              0.902
 Vibration    19          0.782              1.428              0.894
 Vibration    20          0.823              1.326              0.749
 Vibration    21          0.861              1.236              0.643
 Vibration    22          0.872              1.211              0.616
 Vibration    23          0.896              1.160              0.564
 Vibration    24          0.954              1.040              0.456

 Optimization completed.
    -- Stationary point found.
 Normal termination of Gaussian 16 at Tue Mar  1 10:50:09 2022.

 ------------------------------------------
 #p b3lyp/6-31G(d) geom=allcheck guess=read
 ------------------------------------------

 Structure from the checkpoint file:  "61.n.pdb.xyz.mst.wat.chk"
 ------------
 61.n.pdb.xyz
 ------------
 Charge =  0 Multiplicity = 1

 SCF Done:  E(RB3LYP) =  -1298.36738100     A.U. after   12 cycles
 Normal termination of Gaussian 16 at Tue Mar  1 10:53:19 2022.
 Gaussian 16:  ES64L-G16RevA.03 25-Dec-2016

 ----------------------------------------------------------------------
 #p b3lyp/6-31G(d) scrf=(iefpcm,read,solvent=water) geom=allcheck guess
 =read
 ----------------------------------------------------------------------

 Structure from the checkpoint file:  "61.n.pdb.xyz.mst.wat.chk"
 ------------
 61.n.pdb.xyz
 ------------
 Charge =  0 Multiplicity = 1

                         Standard orientation:
 ---------------------------------------------------------------------
 Center     Atomic      Atomic             Coordinates (Angstroms)
 Number     Number       Type             X           Y           Z
 ---------------------------------------------------------------------
      1          8           0        3.459793    1.485157   -1.553411
      2          6           0        2.508598    0.714181   -0.881661
      3          7           0        1.327926    1.496786   -0.557376
      4          6           0        0.253445    0.878174   -0.205204
      5          6           0       -0.962849    1.703778    0.039745
      6          6           0       -1.136163    2.903859   -0.668772
      7          6           0       -2.242954    3.713270   -0.429837
      8          6           0       -3.190089    3.341854    0.528506
      9          6           0       -3.023846    2.155268    1.243773
     10          6           0       -1.920333    1.338148    0.998310
     11          6           0        0.159928   -0.595155   -0.022909
     12          6           0       -0.997495   -1.268468   -0.452277
     13          6           0       -1.138236   -2.630198   -0.243118
     14         17           0       -2.587493   -3.448202   -0.810738
     15          6           0       -0.153180   -3.362860    0.421311
     16          6           0        0.998167   -2.713766    0.841042
     17          6           0        1.180788   -1.341574    0.609008
     18          7           0        2.366336   -0.747611    1.078095
     19          6           0        3.105206    0.197859    0.433869
     20          8           0        4.165083    0.639843    0.867684
     21          1           0        4.066014    1.825529   -0.864963
     22          1           0        2.246263   -0.138447   -1.521854
     23          1           0       -0.396183    3.184313   -1.409025
     24          1           0       -2.370392    4.631714   -0.993089
     25          1           0       -4.052522    3.973303    0.714212
     26          1           0       -3.750989    1.864634    1.994491
     27          1           0       -1.793283    0.421691    1.562739
     28          1           0       -1.782520   -0.712114   -0.947264
     29          1           0       -0.280400   -4.424015    0.594970
     30          1           0        1.776662   -3.274920    1.344749
     31          1           0        2.819975   -1.182688    1.877649
 ---------------------------------------------------------------------

 SCF Done:  E(RB3LYP) =  -1298.38859990     A.U. after   11 cycles

 The electronic state is 1-A.
 Alpha  occ. eigenvalues -- -101.55893 -19.15109 -19.14404 -14.38782 -14.33854
 Alpha  occ. eigenvalues --  -10.30942 -10.27532 -10.26263 -10.26140 -10.25558
 Alpha  occ. eigenvalues --  -10.22583 -10.21822 -10.21780 -10.21318 -10.20738
 Alpha  occ. eigenvalues --  -10.19935 -10.19778 -10.19659 -10.19599 -10.19549
 Alpha  occ. eigenvalues --   -9.47517  -7.23910  -7.22948  -7.22916  -1.06960
 Alpha  occ. eigenvalues --   -1.02807  -0.96872  -0.93001  -0.90018  -0.86068
 Alpha  occ. eigenvalues --   -0.84518  -0.78866  -0.76474  -0.75123  -0.74968
 Alpha  occ. eigenvalues --   -0.71006  -0.67168  -0.63618  -0.61560  -0.61398
 Alpha  occ. eigenvalues --   -0.59640  -0.57337  -0.55348  -0.53015  -0.52036
 Alpha  occ. eigenvalues --   -0.50812  -0.48868  -0.48676  -0.48034  -0.45848
 Alpha  occ. eigenvalues --   -0.45483  -0.44701  -0.44086  -0.42737  -0.42457
 Alpha  occ. eigenvalues --   -0.42227  -0.40421  -0.40276  -0.38531  -0.38183
 Alpha  occ. eigenvalues --   -0.36592  -0.35821  -0.35265  -0.34854  -0.33069
 Alpha  occ. eigenvalues --   -0.32439  -0.30653  -0.29863  -0.29025  -0.27458
 Alpha  occ. eigenvalues --   -0.26895  -0.25818  -0.24602  -0.23822
 Alpha virt. eigenvalues --   -0.06362  -0.03209  -0.02538  -0.00605   0.01369
 Alpha virt. eigenvalues --    0.02079   0.04559   0.10007   0.10480   0.11783
 Alpha virt. eigenvalues --    0.12313   0.13273   0.14268   0.14727   0.15582

 Mulliken charges:
               1
     1  O   -0.665290
     2  C    0.152899
     3  N   -0.473595
     4  C    0.222355
     5  C    0.091208
     6  C   -0.169822
     7  C   -0.151169
     8  C   -0.136373
     9  C   -0.150963
    10  C   -0.182691
    11  C    0.078609
    12  C   -0.192926
    13  C   -0.069582
    14  Cl  -0.030188
    15  C   -0.135138
    16  C   -0.169255
    17  C    0.300209
    18  N   -0.693851
    19  C    0.576276
    20  O   -0.554596
    21  H    0.430178
    22  H    0.178386
    23  H    0.154587
    24  H    0.156658
    25  H    0.157163
    26  H    0.157266
    27  H    0.160287
    28  H    0.187075
    29  H    0.186313
    30  H    0.183809
    31  H    0.402164
 Sum of Mulliken charges =  -0.00000

 Dipole moment (field-independent basis, Debye):
    X=             -2.9920    Y=             -4.2233    Z=              3.3789  Tot=              6.1810
 Quadrupole moment (field-independent basis, Debye-Ang):
   XX=           -130.6616   YY=           -111.6142   ZZ=           -119.6658
   XY=            -21.9478   XZ=              3.3074   YZ=             -6.3037

 Normal termination of Gaussian 16 at Tue Mar  1 10:56:40 2022.
