 Gaussian 16, Revision A.03,

 ----------------------------------------------------------------------
 #p b3lyp/6-31G(d) opt=(MaxStep=10,MaxCycles=1000) freq scf=(MaxCycle=2
 000,NoVarAcc,NoIncFock) scrf=(iefpcm,read,solvent=water)
 ----------------------------------------------------------------------

 ------------
 62.n.pdb.xyz
 ------------
 Symbolic Z-matrix:
 Charge =  0 Multiplicity = 1

 SCF Done:  E(RB3LYP) =  -902.774319253     A.U. after   13 cycles
 SCF Done:  E(RB3LYP) =  -902.779953851     A.U. after   10 cycles
 SCF Done:  E(RB3LYP) =  -902.783089086     A.U. after   10 cycles
 SCF Done:  E(RB3LYP) =  -902.783331220     A.U. after   10 cycles
 SCF Done:  E(RB3LYP) =  -902.783530362     A.U. after   10 cycles
 SCF Done:  E(RB3LYP) =  -902.783739828     A.U. after    9 cycles
 SCF Done:  E(RB3LYP) =  -902.783753770     A.U. after   11 cycles
 SCF Done:  E(RB3LYP) =  -902.783858828     A.U. after   10 cycles
 SCF Done:  E(RB3LYP) =  -902.783988456     A.U. after   10 cycles
 SCF Done:  E(RB3LYP) =  -902.783922506     A.U. after   11 cycles
 SCF Done:  E(RB3LYP) =  -902.784605016     A.U. after    9 cycles
 SCF Done:  E(RB3LYP) =  -902.784627332     A.U. after    9 cycles
 SCF Done:  E(RB3LYP) =  -902.784628871     A.U. after    8 cycles
 SCF Done:  E(RB3LYP) =  -902.784634311     A.U. after    8 cycles
 SCF Done:  E(RB3LYP) =  -902.784632958     A.U. after    7 cycles
 SCF Done:  E(RB3LYP) =  -902.784632766     A.U. after    6 cycles
 SCF Done:  E(RB3LYP) =  -902.784632563     A.U. after    5 cycles
 Optimization completed.
    -- Stationary point found.
 Normal termination of Gaussian 16 at Tue Mar  1 17:42:05 2022.

 --------------------------------------------------------------------
 #P Geom=AllCheck Guess=TCheck SCRF=Check GenChk RB3LYP/6-31G(d) Freq
 --------------------------------------------------------------------

 Structure from the checkpoint file:  "62.n.pdb.xyz.mst.wat.chk"
 ------------
 62.n.pdb.xyz
 ------------
 Charge =  0 Multiplicity = 1

 SCF Done:  E(RB3LYP) =  -902.784632563     A.U. after    1 cycles

  Exact polarizability: 296.605 -12.686 236.522   2.061  15.352 181.211
 Approx polarizability: 309.430 -10.607 256.235   2.941  22.176 202.904

                      1                      2                      3
                      A                      A                      A
 Frequencies --     27.1362                30.0218                37.0378
 Red. masses --      4.4855                 2.7103                 3.5342
 Frc consts  --      0.0019                 0.0014                 0.0029
 IR Inten    --      2.3753                 0.6001                 2.0165

                      4                      5                      6
                      A                      A                      A
 Frequencies --     49.2933                60.8397                67.3663
 Red. masses --      2.2470                 4.4487                 3.5672
 Frc consts  --      0.0032                 0.0097                 0.0095
 IR Inten    --      0.6418                 3.2238                 2.1521

                      7                      8                      9
                      A                      A                      A
 Frequencies --     84.2667               117.2358               161.4895
 Red. masses --      3.1773                 3.8357                 3.9664
 Frc consts  --      0.0133                 0.0311                 0.0609
 IR Inten    --      3.0925                 5.3443                 2.3338

                     10                     11                     12
                      A                      A                      A
 Frequencies --    166.4138               184.4971               194.0906
 Red. masses --      2.7394                 3.1796                 3.0951
 Frc consts  --      0.0447                 0.0638                 0.0687
 IR Inten    --      1.7290                 0.3126                 6.2509

                     13                     14                     15
                      A                      A                      A
 Frequencies --    223.3691               248.8592               269.9689
 Red. masses --      4.6754                 2.4098                 1.5196
 Frc consts  --      0.1374                 0.0879                 0.0653
 IR Inten    --      2.6426                 1.3252                 0.2728

                     16                     17                     18
                      A                      A                      A
 Frequencies --    276.9170               312.0260               357.7984
 Red. masses --      3.6611                 5.0431                 3.7549
 Frc consts  --      0.1654                 0.2893                 0.2832
 IR Inten    --      1.8372                 2.8838                10.6763

                     19                     20                     21
                      A                      A                      A
 Frequencies --    394.8956               429.6474               474.4211
 Red. masses --      5.7303                 3.4390                 1.6374
 Frc consts  --      0.5265                 0.3740                 0.2171
 IR Inten    --      6.5450                 8.7539                53.9954

                     22                     23                     24
                      A                      A                      A
 Frequencies --    479.5852               494.2160               523.0092
 Red. masses --      2.6707                 2.7486                 2.1142
 Frc consts  --      0.3619                 0.3955                 0.3407
 IR Inten    --      1.8866                40.2043                61.1654

                     25                     26                     27
                      A                      A                      A
 Frequencies --    553.9936               565.6565               592.7914
 Red. masses --      2.5822                 3.6597                 4.4764
 Frc consts  --      0.4669                 0.6899                 0.9268
 IR Inten    --     15.4152                30.7647                11.8400

                     28                     29                     30
                      A                      A                      A
 Frequencies --    609.1224               620.8451               644.9603
 Red. masses --      3.5491                 2.9766                 4.8223
 Frc consts  --      0.7759                 0.6760                 1.1819
 IR Inten    --     45.2987                 0.9996                17.8451

                     31                     32                     33
                      A                      A                      A
 Frequencies --    669.9561               693.3268               739.0028
 Red. masses --      4.3247                 5.9599                 4.4136
 Frc consts  --      1.1437                 1.6880                 1.4201
 IR Inten    --      6.8036                16.6226                 2.5409

                     34                     35                     36
                      A                      A                      A
 Frequencies --    775.3886               780.6122               797.4073
 Red. masses --      1.2673                 4.1194                 4.8260
 Frc consts  --      0.4489                 1.4790                 1.8080
 IR Inten    --      8.7909                23.6600                 8.9261

                     37                     38                     39
                      A                      A                      A
 Frequencies --    821.9694               831.1860               881.7010
 Red. masses --      1.8044                 1.4617                 2.9933
 Frc consts  --      0.7183                 0.5950                 1.3710
 IR Inten    --      5.7055                50.4895                 1.6032

                     40                     41                     42
                      A                      A                      A
 Frequencies --    888.7124               896.1946               901.8380
 Red. masses --      3.2531                 4.0175                 1.9583
 Frc consts  --      1.5138                 1.9011                 0.9384
 IR Inten    --      8.0468                 2.5950                 4.9524

                     43                     44                     45
                      A                      A                      A
 Frequencies --    911.5473               928.3200               948.6098
 Red. masses --      1.6176                 1.4571                 1.2948
 Frc consts  --      0.7919                 0.7398                 0.6865
 IR Inten    --     12.3595                 6.2076                 0.2990

                     46                     47                     48
                      A                      A                      A
 Frequencies --    956.5509               977.4672               992.7689
 Red. masses --      1.7207                 1.8722                 2.1747
 Frc consts  --      0.9276                 1.0539                 1.2628
 IR Inten    --      9.1029                 6.5210                14.4593

                     49                     50                     51
                      A                      A                      A
 Frequencies --    999.8678              1042.7401              1055.7872
 Red. masses --      1.2676                 2.9452                 4.1813
 Frc consts  --      0.7467                 1.8868                 2.7461
 IR Inten    --      2.2503                79.8377                37.0428

                     52                     53                     54
                      A                      A                      A
 Frequencies --   1057.7079              1061.2479              1069.1080
 Red. masses --      2.8309                 2.5520                 2.2863
 Frc consts  --      1.8660                 1.6934                 1.5397
 IR Inten    --     73.2785               145.2658                41.6187

                     55                     56                     57
                      A                      A                      A
 Frequencies --   1091.8771              1125.1759              1160.5570
 Red. masses --      2.9459                 2.8668                 1.8982
 Frc consts  --      2.0693                 2.1384                 1.5063
 IR Inten    --      5.6372                 9.3276               170.4968

                     58                     59                     60
                      A                      A                      A
 Frequencies --   1177.8534              1186.0572              1196.8497
 Red. masses --      1.3651                 1.2663                 1.5616
 Frc consts  --      1.1158                 1.0495                 1.3179
 IR Inten    --     52.8074                 1.7389                11.9534

                     61                     62                     63
                      A                      A                      A
 Frequencies --   1201.1673              1210.5367              1219.8116
 Red. masses --      1.4562                 1.4726                 1.4304
 Frc consts  --      1.2379                 1.2714                 1.2540
 IR Inten    --      9.4163                 3.1032                23.2520

                     64                     65                     66
                      A                      A                      A
 Frequencies --   1233.5583              1234.7768              1256.3789
 Red. masses --      1.2108                 1.5420                 2.1671
 Frc consts  --      1.0856                 1.3852                 2.0154
 IR Inten    --      3.9084                 1.0437               137.4974

                     67                     68                     69
                      A                      A                      A
 Frequencies --   1272.3226              1282.5861              1284.9531
 Red. masses --      1.4855                 1.1960                 1.9247
 Frc consts  --      1.4169                 1.1592                 1.8723
 IR Inten    --     27.2492                 2.9861                92.6112

                     70                     71                     72
                      A                      A                      A
 Frequencies --   1297.6714              1305.3136              1317.5137
 Red. masses --      1.3824                 4.0111                 1.5603
 Frc consts  --      1.3716                 4.0266                 1.5957
 IR Inten    --     38.4942               450.2321                14.8345

                     73                     74                     75
                      A                      A                      A
 Frequencies --   1324.7584              1341.6291              1342.2966
 Red. masses --      1.2702                 1.3857                 1.3701
 Frc consts  --      1.3134                 1.4695                 1.4545
 IR Inten    --      2.4244                42.4329                 1.4426

                     76                     77                     78
                      A                      A                      A
 Frequencies --   1349.7622              1354.5072              1358.5462
 Red. masses --      2.9646                 1.3565                 2.0611
 Frc consts  --      3.1822                 1.4664                 2.2412
 IR Inten    --    101.1682                 2.6884                12.5916

                     79                     80                     81
                      A                      A                      A
 Frequencies --   1381.0951              1385.1183              1413.4858
 Red. masses --      1.5181                 1.9321                 1.3317
 Frc consts  --      1.7061                 2.1840                 1.5676
 IR Inten    --      5.4221                11.8694                33.1747

                     82                     83                     84
                      A                      A                      A
 Frequencies --   1467.8363              1474.8259              1482.3366
 Red. masses --      2.3038                 1.9815                 1.2870
 Frc consts  --      2.9245                 2.5394                 1.6662
 IR Inten    --     77.4636                33.6753                20.0205

                     85                     86                     87
                      A                      A                      A
 Frequencies --   1503.7272              1508.5229              1514.6161
 Red. masses --      1.2468                 1.0808                 1.0955
 Frc consts  --      1.6610                 1.4491                 1.4807
 IR Inten    --     40.6323                 0.5673                 2.2427

                     88                     89                     90
                      A                      A                      A
 Frequencies --   1515.2577              1515.4185              1530.0023
 Red. masses --      1.0873                 1.0494                 1.1088
 Frc consts  --      1.4709                 1.4199                 1.5292
 IR Inten    --      3.8360                10.7906                98.7030

                     91                     92                     93
                      A                      A                      A
 Frequencies --   1533.6488              1547.3481              1557.4847
 Red. masses --      1.1112                 1.1116                 2.4264
 Frc consts  --      1.5399                 1.5680                 3.4678
 IR Inten    --      2.0156                30.6391               206.3993

                     94                     95                     96
                      A                      A                      A
 Frequencies --   1629.5167              1663.5991              1763.2081
 Red. masses --      6.7273                 6.2101                 9.3186
 Frc consts  --     10.5247                10.1261                17.0691
 IR Inten    --     16.1377                22.3115               860.1528

                     97                     98                     99
                      A                      A                      A
 Frequencies --   3049.5555              3059.1168              3060.3467
 Red. masses --      1.0682                 1.0333                 1.0659
 Frc consts  --      5.8530                 5.6971                 5.8820
 IR Inten    --     67.1611                85.7891                30.5787

                    100                    101                    102
                      A                      A                      A
 Frequencies --   3066.2004              3069.4246              3071.4226
 Red. masses --      1.0637                 1.0767                 1.0632
 Frc consts  --      5.8923                 5.9764                 5.9095
 IR Inten    --     52.5416                20.2885                44.1462

                    103                    104                    105
                      A                      A                      A
 Frequencies --   3076.9133              3085.0687              3100.5171
 Red. masses --      1.0738                 1.0647                 1.0855
 Frc consts  --      5.9896                 5.9707                 6.1480
 IR Inten    --     40.7302                73.0434                20.9130

                    106                    107                    108
                      A                      A                      A
 Frequencies --   3107.6729              3120.8121              3121.4711
 Red. masses --      1.0991                 1.1013                 1.0984
 Frc consts  --      6.2539                 6.3194                 6.3058
 IR Inten    --     31.1183                17.5543                60.4864

                    109                    110                    111
                      A                      A                      A
 Frequencies --   3122.5883              3123.6596              3133.1448
 Red. masses --      1.1019                 1.1073                 1.1039
 Frc consts  --      6.3302                 6.3655                 6.3849
 IR Inten    --     50.7295                55.2532               162.2088

                    112                    113                    114
                      A                      A                      A
 Frequencies --   3140.1657              3188.0568              3203.6951
 Red. masses --      1.0983                 1.1021                 1.0887
 Frc consts  --      6.3809                 6.5998                 6.5838
 IR Inten    --     26.8013                32.6143                21.5386

                    115                    116                    117
                      A                      A                      A
 Frequencies --   3208.8702              3243.4734              3602.6543
 Red. masses --      1.0906                 1.0913                 1.0791
 Frc consts  --      6.6164                 6.7640                 8.2521
 IR Inten    --     17.3284                13.3799                99.8800

 - Thermochemistry -
 -------------------
 Temperature   298.150 Kelvin.  Pressure   1.00000 Atm.
 Atom     1 has atomic number  6 and mass  12.00000

 Molecular mass:   275.15214 amu.
 Principal axes and moments of inertia in atomic units:
                           1         2         3
     Eigenvalues --  2901.07596********************
           X            0.99996   0.00851   0.00010
           Y           -0.00851   0.99996   0.00361
           Z           -0.00006  -0.00361   0.99999
 This molecule is an asymmetric top.
 Rotational symmetry number  1.
 Warning -- assumption of classical behavior for rotation
           may cause significant error
 Rotational temperatures (Kelvin)      0.02986     0.00718     0.00620
 Rotational constants (GHZ):           0.62209     0.14951     0.12926
 Zero-point vibrational energy     923511.9 (Joules/Mol)
                                  220.72463 (Kcal/Mol)
 Warning -- explicit consideration of  28 degrees of freedom as
           vibrations may cause significant error
 Vibrational temperatures:     39.04    43.19    53.29    70.92    87.53
          (Kelvin)             96.93   121.24   168.68   232.35   239.43
                              265.45   279.25   321.38   358.05   388.42
                              398.42   448.94   514.79   568.17   618.17
                              682.59   690.02   711.07   752.49   797.07
                              813.85   852.89   876.39   893.26   927.95
                              963.92   997.54  1063.26  1115.61  1123.13
                             1147.29  1182.63  1195.89  1268.57  1278.66
                             1289.42  1297.54  1311.51  1335.65  1364.84
                             1376.26  1406.36  1428.37  1438.59  1500.27
                             1519.04  1521.81  1526.90  1538.21  1570.97
                             1618.88  1669.78  1694.67  1706.47  1722.00
                             1728.21  1741.69  1755.04  1774.82  1776.57
                             1807.65  1830.59  1845.36  1848.76  1867.06
                             1878.06  1895.61  1906.03  1930.31  1931.27
                             1942.01  1948.83  1954.64  1987.09  1992.88
                             2033.69  2111.89  2121.95  2132.75  2163.53
                             2170.43  2179.19  2180.12  2180.35  2201.33
                             2206.58  2226.29  2240.87  2344.51  2393.55
                             2536.86  4387.63  4401.39  4403.16  4411.58
                             4416.22  4419.09  4426.99  4438.73  4460.95
                             4471.25  4490.15  4491.10  4492.71  4494.25
                             4507.90  4518.00  4586.90  4609.40  4616.85
                             4666.63  5183.42

 Zero-point correction=                           0.351747 (Hartree/Particle)
 Thermal correction to Energy=                    0.370506
 Thermal correction to Enthalpy=                  0.371450
 Thermal correction to Gibbs Free Energy=         0.302187
 Sum of electronic and zero-point Energies=           -902.432885
 Sum of electronic and thermal Energies=              -902.414126
 Sum of electronic and thermal Enthalpies=            -902.413182
 Sum of electronic and thermal Free Energies=         -902.482445

                     E (Thermal)             CV                S
                      KCal/Mol        Cal/Mol-Kelvin    Cal/Mol-Kelvin
 Total                  232.496             71.488            145.777
 Electronic               0.000              0.000              0.000
 Translational            0.889              2.981             42.735
 Rotational               0.889              2.981             34.546
 Vibrational            230.719             65.527             68.496
 Vibration     1          0.593              1.984              6.028
 Vibration     2          0.594              1.984              5.828
 Vibration     3          0.594              1.982              5.412
 Vibration     4          0.595              1.978              4.846
 Vibration     5          0.597              1.973              4.430
 Vibration     6          0.598              1.970              4.229
 Vibration     7          0.601              1.960              3.789
 Vibration     8          0.608              1.935              3.145
 Vibration     9          0.622              1.890              2.532
 Vibration    10          0.624              1.884              2.476
 Vibration    11          0.631              1.861              2.282
 Vibration    12          0.635              1.848              2.188
 Vibration    13          0.649              1.805              1.932
 Vibration    14          0.662              1.765              1.739
 Vibration    15          0.674              1.728              1.596
 Vibration    16          0.678              1.716              1.553
 Vibration    17          0.700              1.651              1.352
 Vibration    18          0.733              1.559              1.132
 Vibration    19          0.762              1.481              0.982
 Vibration    20          0.791              1.406              0.860
 Vibration    21          0.831              1.307              0.725
 Vibration    22          0.836              1.295              0.711
 Vibration    23          0.850              1.263              0.673
 Vibration    24          0.878              1.199              0.603
 Vibration    25          0.909              1.131              0.536
 Vibration    26          0.922              1.106              0.513
 Vibration    27          0.950              1.047              0.462
 Vibration    28          0.968              1.012              0.434

                           ! Non-Optimized Parameters !
 Normal termination of Gaussian 16 at Tue Mar  1 18:28:22 2022.

 ------------------------------------------
 #p b3lyp/6-31G(d) geom=allcheck guess=read
 ------------------------------------------

 Structure from the checkpoint file:  "62.n.pdb.xyz.mst.wat.chk"
 ------------
 62.n.pdb.xyz
 ------------
 Charge =  0 Multiplicity = 1

 SCF Done:  E(RB3LYP) =  -902.766712805     A.U. after   12 cycles
 Normal termination of Gaussian 16 at Tue Mar  1 18:31:33 2022.
 Gaussian 16:  ES64L-G16RevA.03 25-Dec-2016

 ----------------------------------------------------------------------
 #p b3lyp/6-31G(d) scrf=(iefpcm,read,solvent=water) geom=allcheck guess
 =read
 ----------------------------------------------------------------------

 Structure from the checkpoint file:  "62.n.pdb.xyz.mst.wat.chk"
 ------------
 62.n.pdb.xyz
 ------------
 Charge =  0 Multiplicity = 1

                         Standard orientation:
 ---------------------------------------------------------------------
 Center     Atomic      Atomic             Coordinates (Angstroms)
 Number     Number       Type             X           Y           Z
 ---------------------------------------------------------------------
      1          6           0       -2.153713    3.640755    0.535747
      2          8           0       -2.122580    2.320303   -0.003394
      3          6           0       -0.925336    1.666341   -0.001933
      4          6           0       -0.919081    0.365449   -0.549484
      5          8           0       -2.058189   -0.177246   -1.098684
      6          6           0       -3.117260   -0.522086   -0.179357
      7          6           0       -2.879070   -1.822216    0.596733
      8          6           0       -4.294027   -2.196810    1.063010
      9          6           0       -5.226449   -1.773864   -0.107487
     10          6           0       -4.395834   -0.796391   -0.979715
     11          6           0        0.273516   -0.348740   -0.613359
     12          6           0        1.480922    0.182969   -0.139721
     13          6           0        1.455430    1.465355    0.416167
     14          6           0        0.269812    2.200777    0.486926
     15          6           0        2.751425   -0.635558   -0.224478
     16          6           0        3.321750   -1.083584    1.151014
     17          7           0        4.739495   -1.261526    0.866384
     18          6           0        5.180598   -0.604852   -0.234955
     19          8           0        6.348517   -0.540210   -0.620708
     20          6           0        3.966182    0.052062   -0.886452
     21          1           0       -1.490685    4.310117   -0.021952
     22          1           0       -1.863975    3.644272    1.591492
     23          1           0       -3.184443    3.978516    0.436734
     24          1           0       -3.261494    0.313260    0.511545
     25          1           0       -2.487919   -2.576052   -0.097229
     26          1           0       -2.164183   -1.713923    1.416959
     27          1           0       -4.386027   -3.256601    1.314797
     28          1           0       -4.545802   -1.629889    1.965830
     29          1           0       -6.140615   -1.306143    0.267480
     30          1           0       -5.534594   -2.642068   -0.696290
     31          1           0       -4.102838   -1.269443   -1.922924
     32          1           0       -4.931908    0.122603   -1.229130
     33          1           0        0.248554   -1.341090   -1.052489
     34          1           0        2.368503    1.913685    0.795962
     35          1           0        0.281717    3.196352    0.912106
     36          1           0        2.530340   -1.544200   -0.793517
     37          1           0        3.165137   -0.315630    1.918645
     38          1           0        2.868058   -2.013222    1.502534
     39          1           0        5.386787   -1.670286    1.530574
     40          1           0        3.999194    1.123387   -0.656824
     41          1           0        3.994557   -0.053380   -1.972645
 ---------------------------------------------------------------------

 SCF Done:  E(RB3LYP) =  -902.783676936     A.U. after   11 cycles

 The electronic state is 1-A.
 Alpha  occ. eigenvalues --  -19.18269 -19.16221 -19.11240 -14.35377 -10.28437
 Alpha  occ. eigenvalues --  -10.24935 -10.24116 -10.23470 -10.23054 -10.22179
 Alpha  occ. eigenvalues --  -10.20296 -10.19528 -10.19129 -10.19001 -10.18993
 Alpha  occ. eigenvalues --  -10.18812 -10.17721 -10.17678 -10.17535 -10.17404
 Alpha  occ. eigenvalues --   -1.07075  -1.04206  -1.02704  -0.93271  -0.85741
 Alpha  occ. eigenvalues --   -0.82815  -0.79428  -0.74851  -0.74620  -0.71556
 Alpha  occ. eigenvalues --   -0.70701  -0.70075  -0.68421  -0.62398  -0.60878
 Alpha  occ. eigenvalues --   -0.58665  -0.58220  -0.56401  -0.55685  -0.53354
 Alpha  occ. eigenvalues --   -0.50997  -0.50196  -0.49286  -0.48389  -0.47538
 Alpha  occ. eigenvalues --   -0.46659  -0.44700  -0.44184  -0.43582  -0.43122
 Alpha  occ. eigenvalues --   -0.42341  -0.42108  -0.41985  -0.40893  -0.40329
 Alpha  occ. eigenvalues --   -0.39117  -0.38486  -0.37430  -0.37031  -0.36185
 Alpha  occ. eigenvalues --   -0.35665  -0.34193  -0.34008  -0.33649  -0.33160
 Alpha  occ. eigenvalues --   -0.32834  -0.31835  -0.31543  -0.30654  -0.27328
 Alpha  occ. eigenvalues --   -0.25510  -0.24763  -0.24334  -0.21366
 Alpha virt. eigenvalues --   -0.00380   0.00521   0.03305   0.07823   0.08832
 Alpha virt. eigenvalues --    0.09536   0.10633   0.11364   0.11750   0.12801
 Alpha virt. eigenvalues --    0.13809   0.14715   0.14817   0.15174   0.15502

 Mulliken charges:
               1
     1  C   -0.228386
     2  O   -0.524322
     3  C    0.344213
     4  C    0.322798
     5  O   -0.581758
     6  C    0.139636
     7  C   -0.290325
     8  C   -0.280261
     9  C   -0.280633
    10  C   -0.298291
    11  C   -0.271220
    12  C    0.174317
    13  C   -0.218575
    14  C   -0.225385
    15  C   -0.216336
    16  C   -0.110296
    17  N   -0.585850
    18  C    0.591261
    19  O   -0.605942
    20  C   -0.377032
    21  H    0.168543
    22  H    0.168864
    23  H    0.181735
    24  H    0.150390
    25  H    0.141095
    26  H    0.143980
    27  H    0.144037
    28  H    0.144763
    29  H    0.144506
    30  H    0.146349
    31  H    0.146974
    32  H    0.147523
    33  H    0.144096
    34  H    0.148620
    35  H    0.163893
    36  H    0.165434
    37  H    0.162234
    38  H    0.170096
    39  H    0.375545
    40  H    0.184463
    41  H    0.179249
 Sum of Mulliken charges =  -0.00000

 Dipole moment (field-independent basis, Debye):
    X=             -4.8687    Y=              0.8864    Z=              5.0503  Tot=              7.0708
 Quadrupole moment (field-independent basis, Debye-Ang):
   XX=           -154.7455   YY=            -99.7702   ZZ=           -116.7879
   XY=             -3.7338   XZ=             11.8136   YZ=              1.1945

 Normal termination of Gaussian 16 at Tue Mar  1 18:35:15 2022.
