 Gaussian 16, Revision A.03,

 ----------------------------------------------------------------------
 #p b3lyp/6-31G(d) opt=(MaxStep=10,MaxCycles=1000) freq scf=(MaxCycle=2
 000,NoVarAcc,NoIncFock) scrf=(iefpcm,read,solvent=water)
 ----------------------------------------------------------------------

 ------------
 63.n.pdb.xyz
 ------------
 Symbolic Z-matrix:
 Charge =  0 Multiplicity = 1

 SCF Done:  E(RB3LYP) =  -1016.12747410     A.U. after   13 cycles
 SCF Done:  E(RB3LYP) =  -1016.13165681     A.U. after   10 cycles
 SCF Done:  E(RB3LYP) =  -1016.13295887     A.U. after   11 cycles
 SCF Done:  E(RB3LYP) =  -1016.13276680     A.U. after   10 cycles
 SCF Done:  E(RB3LYP) =  -1016.13350036     A.U. after   10 cycles
 SCF Done:  E(RB3LYP) =  -1016.13332423     A.U. after    9 cycles
 SCF Done:  E(RB3LYP) =  -1016.13315338     A.U. after    9 cycles
 SCF Done:  E(RB3LYP) =  -1016.13325499     A.U. after    9 cycles
 SCF Done:  E(RB3LYP) =  -1016.13323510     A.U. after    8 cycles
 SCF Done:  E(RB3LYP) =  -1016.13320605     A.U. after    8 cycles
 SCF Done:  E(RB3LYP) =  -1016.13320325     A.U. after    7 cycles
 SCF Done:  E(RB3LYP) =  -1016.13320235     A.U. after    6 cycles
 Optimization completed.
    -- Stationary point found.
 Normal termination of Gaussian 16 at Tue Mar  1 18:45:00 2022.

 --------------------------------------------------------------------
 #P Geom=AllCheck Guess=TCheck SCRF=Check GenChk RB3LYP/6-31G(d) Freq
 --------------------------------------------------------------------

 Structure from the checkpoint file:  "63.n.pdb.xyz.mst.wat.chk"
 ------------
 63.n.pdb.xyz
 ------------
 Charge =  0 Multiplicity = 1

 SCF Done:  E(RB3LYP) =  -1016.13320235     A.U. after    1 cycles

  Exact polarizability: 300.305  10.091 210.210  -2.955  36.678 235.208
 Approx polarizability: 309.123   7.664 223.020  -4.957  49.849 283.510

                      1                      2                      3
                      A                      A                      A
 Frequencies --     23.3497                25.8695                34.8582
 Red. masses --      5.1606                 4.3578                 6.9564
 Frc consts  --      0.0017                 0.0017                 0.0050
 IR Inten    --      1.4966                 0.0197                 3.2276

                      4                      5                      6
                      A                      A                      A
 Frequencies --     44.4799                55.3045                73.2716
 Red. masses --      4.1191                 6.2487                 4.4814
 Frc consts  --      0.0048                 0.0113                 0.0142
 IR Inten    --      2.4824                 2.9801                 1.0665

                      7                      8                      9
                      A                      A                      A
 Frequencies --     97.4742               108.0263               129.8934
 Red. masses --      2.8888                 1.1499                 4.5218
 Frc consts  --      0.0162                 0.0079                 0.0450
 IR Inten    --      0.6236                 0.1333                 0.7723

                     10                     11                     12
                      A                      A                      A
 Frequencies --    160.8811               170.8574               184.9002
 Red. masses --      5.1810                 3.7033                 2.1991
 Frc consts  --      0.0790                 0.0637                 0.0443
 IR Inten    --      0.6520                 0.9872                 2.7176

                     13                     14                     15
                      A                      A                      A
 Frequencies --    192.8137               205.6874               230.4189
 Red. masses --      1.8447                 1.4752                 4.2316
 Frc consts  --      0.0404                 0.0368                 0.1324
 IR Inten    --      5.9184                 4.5103                 3.6519

                     16                     17                     18
                      A                      A                      A
 Frequencies --    248.5559               272.3790               295.9115
 Red. masses --      6.2274                 2.4853                 5.4729
 Frc consts  --      0.2267                 0.1086                 0.2824
 IR Inten    --      0.9996                 4.8972                 6.8314

                     19                     20                     21
                      A                      A                      A
 Frequencies --    326.1165               354.8620               371.9696
 Red. masses --      3.6435                 3.8970                 2.9278
 Frc consts  --      0.2283                 0.2891                 0.2387
 IR Inten    --     23.2006                12.4857                 4.1029

                     22                     23                     24
                      A                      A                      A
 Frequencies --    416.6766               418.3993               435.5585
 Red. masses --      3.0054                 5.4026                 3.6743
 Frc consts  --      0.3074                 0.5572                 0.4107
 IR Inten    --      0.0374                 0.5756                 4.9410

                     25                     26                     27
                      A                      A                      A
 Frequencies --    465.7995               487.8557               500.4020
 Red. masses --      3.8461                 3.9830                 4.3244
 Frc consts  --      0.4917                 0.5585                 0.6380
 IR Inten    --      5.0241                27.5341                 8.2534

                     28                     29                     30
                      A                      A                      A
 Frequencies --    527.1704               616.4140               631.0328
 Red. masses --      3.8025                 3.6714                 6.4159
 Frc consts  --      0.6226                 0.8219                 1.5053
 IR Inten    --      4.0290                 8.9681                 1.2465

                     31                     32                     33
                      A                      A                      A
 Frequencies --    691.2987               699.6838               703.9615
 Red. masses --      6.3378                 3.3130                 4.3161
 Frc consts  --      1.7845                 0.9556                 1.2602
 IR Inten    --     13.7273                 1.4688                 6.9617

                     34                     35                     36
                      A                      A                      A
 Frequencies --    719.8120               748.6538               757.8839
 Red. masses --      1.7708                 4.4188                 4.3545
 Frc consts  --      0.5406                 1.4592                 1.4737
 IR Inten    --    110.5355                27.6624                10.4151

                     37                     38                     39
                      A                      A                      A
 Frequencies --    768.7868               808.2643               815.1046
 Red. masses --      4.3353                 1.9582                 2.6180
 Frc consts  --      1.5097                 0.7537                 1.0248
 IR Inten    --      3.5331                 7.7479                 3.7457

                     40                     41                     42
                      A                      A                      A
 Frequencies --    833.2045               847.7950               869.7314
 Red. masses --      2.6320                 3.9601                 1.2516
 Frc consts  --      1.0766                 1.6770                 0.5578
 IR Inten    --      9.3129                 6.4336                 0.0061

                     43                     44                     45
                      A                      A                      A
 Frequencies --    874.6776               881.1250               915.8611
 Red. masses --      2.2701                 3.3441                 3.4331
 Frc consts  --      1.0233                 1.5297                 1.6967
 IR Inten    --      7.6093                 4.0519                 1.9310

                     46                     47                     48
                      A                      A                      A
 Frequencies --    950.7241               961.3810               983.6598
 Red. masses --      3.7987                 1.4014                 2.3078
 Frc consts  --      2.0230                 0.7631                 1.3156
 IR Inten    --     10.8984                 1.4183                 9.1615

                     49                     50                     51
                      A                      A                      A
 Frequencies --    990.8179               991.2057              1003.4550
 Red. masses --      1.3660                 2.3710                 2.7426
 Frc consts  --      0.7901                 1.3725                 1.6271
 IR Inten    --      0.1375                 8.5830                31.6741

                     52                     53                     54
                      A                      A                      A
 Frequencies --   1018.5179              1020.0566              1020.8117
 Red. masses --      5.8483                 1.2834                 3.1581
 Frc consts  --      3.5745                 0.7868                 1.9389
 IR Inten    --      8.5187                 0.0295                23.9377

                     55                     56                     57
                      A                      A                      A
 Frequencies --   1038.6630              1053.6737              1060.6129
 Red. masses --      3.4048                 2.2825                 1.8593
 Frc consts  --      2.1642                 1.4931                 1.2323
 IR Inten    --     46.2750                46.2540                41.0085

                     58                     59                     60
                      A                      A                      A
 Frequencies --   1069.2096              1087.1907              1110.2395
 Red. masses --      2.2371                 1.8925                 1.5985
 Frc consts  --      1.5068                 1.3179                 1.1609
 IR Inten    --     92.4211                35.9347                71.8353

                     61                     62                     63
                      A                      A                      A
 Frequencies --   1135.7107              1141.2289              1153.5566
 Red. masses --      2.5256                 3.6627                 2.1985
 Frc consts  --      1.9194                 2.8106                 1.7237
 IR Inten    --     87.6027               242.3344                16.8288

                     64                     65                     66
                      A                      A                      A
 Frequencies --   1159.3301              1172.9431              1180.6108
 Red. masses --      1.3309                 1.3682                 1.2753
 Frc consts  --      1.0540                 1.1090                 1.0473
 IR Inten    --     23.6774                24.3704                 4.5804

                     67                     68                     69
                      A                      A                      A
 Frequencies --   1192.9447              1201.0389              1204.0708
 Red. masses --      1.0983                 1.7557                 1.1747
 Frc consts  --      0.9209                 1.4922                 1.0034
 IR Inten    --      0.8298               159.9796                98.3659

                     70                     71                     72
                      A                      A                      A
 Frequencies --   1215.9017              1228.0429              1234.9030
 Red. masses --      1.5839                 1.8944                 1.6890
 Frc consts  --      1.3797                 1.6833                 1.5176
 IR Inten    --     50.9337                42.6917                77.1422

                     73                     74                     75
                      A                      A                      A
 Frequencies --   1249.0135              1262.3346              1277.2146
 Red. masses --      1.6287                 1.3835                 1.5798
 Frc consts  --      1.4970                 1.2989                 1.5183
 IR Inten    --     77.4260                 5.9453               109.4722

                     76                     77                     78
                      A                      A                      A
 Frequencies --   1300.3699              1302.4334              1327.2930
 Red. masses --      2.4321                 1.8046                 1.5631
 Frc consts  --      2.4231                 1.8036                 1.6225
 IR Inten    --    604.2889               262.7783                 4.6731

                     79                     80                     81
                      A                      A                      A
 Frequencies --   1339.2390              1350.6248              1352.5158
 Red. masses --      1.3410                 1.4930                 1.5984
 Frc consts  --      1.4171                 1.6047                 1.7228
 IR Inten    --      4.5140                33.9302                76.9451

                     82                     83                     84
                      A                      A                      A
 Frequencies --   1354.2061              1366.5159              1368.5208
 Red. masses --      1.6317                 1.4861                 4.5009
 Frc consts  --      1.7630                 1.6350                 4.9665
 IR Inten    --     82.4964                29.3615                 5.5290

                     85                     86                     87
                      A                      A                      A
 Frequencies --   1392.5052              1413.6833              1430.2009
 Red. masses --      1.5878                 1.4776                 1.5857
 Frc consts  --      1.8140                 1.7399                 1.9111
 IR Inten    --     17.7823                18.9018                52.2894

                     88                     89                     90
                      A                      A                      A
 Frequencies --   1462.0143              1491.2538              1496.6898
 Red. masses --      1.1770                 1.2402                 2.2407
 Frc consts  --      1.4822                 1.6249                 2.9573
 IR Inten    --      0.3474                25.2294                21.5940

                     91                     92                     93
                      A                      A                      A
 Frequencies --   1502.9649              1505.5083              1507.9245
 Red. masses --      1.0592                 1.0499                 1.0793
 Frc consts  --      1.4096                 1.4020                 1.4459
 IR Inten    --      9.1473                10.6391                 3.3784

                     94                     95                     96
                      A                      A                      A
 Frequencies --   1515.3450              1516.3246              1526.3609
 Red. masses --      1.0887                 1.0536                 1.0657
 Frc consts  --      1.4729                 1.4272                 1.4629
 IR Inten    --      6.3289                12.3496                 8.2254

                     97                     98                     99
                      A                      A                      A
 Frequencies --   1530.4509              1540.5073              1641.2338
 Red. masses --      1.0780                 2.2348                 5.7631
 Frc consts  --      1.4877                 3.1247                 9.1464
 IR Inten    --     14.7263                 3.2374                11.6792

                    100                    101                    102
                      A                      A                      A
 Frequencies --   1660.1893              1755.7884              1778.4685
 Red. masses --      5.6114                12.4969                11.0834
 Frc consts  --      9.1125                22.6985                20.6545
 IR Inten    --     36.3912               472.9612               417.4633

                    103                    104                    105
                      A                      A                      A
 Frequencies --   3008.0817              3081.9014              3089.7313
 Red. masses --      1.0503                 1.0610                 1.0605
 Frc consts  --      5.5993                 5.9374                 5.9651
 IR Inten    --    100.2346                30.7824                31.2120

                    106                    107                    108
                      A                      A                      A
 Frequencies --   3093.8587              3097.2863              3099.6492
 Red. masses --      1.0814                 1.0300                 1.0635
 Frc consts  --      6.0989                 5.8215                 6.0204
 IR Inten    --     45.8529                34.6628                72.4587

                    109                    110                    111
                      A                      A                      A
 Frequencies --   3112.2649              3115.5895              3125.7925
 Red. masses --      1.0847                 1.0881                 1.0899
 Frc consts  --      6.1902                 6.2229                 6.2743
 IR Inten    --     14.1731                65.0208                36.8549

                    112                    113                    114
                      A                      A                      A
 Frequencies --   3127.8004              3129.6810              3133.3512
 Red. masses --      1.1044                 1.1020                 1.1040
 Frc consts  --      6.3660                 6.3594                 6.3862
 IR Inten    --     18.0708                16.5754                62.6218

                    115                    116                    117
                      A                      A                      A
 Frequencies --   3145.3804              3159.6305              3176.0987
 Red. masses --      1.1055                 1.0857                 1.1084
 Frc consts  --      6.4437                 6.3862                 6.5876
 IR Inten    --     80.3055                17.8218                31.0556

                    118                    119                    120
                      A                      A                      A
 Frequencies --   3208.3845              3212.6936              3218.2503
 Red. masses --      1.0863                 1.1067                 1.0898
 Frc consts  --      6.5882                 6.7302                 6.6504
 IR Inten    --      0.3607                21.2961                20.6345

                    121                    122                    123
                      A                      A                      A
 Frequencies --   3227.8597              3240.1514              3246.4788
 Red. masses --      1.0942                 1.0935                 1.0934
 Frc consts  --      6.7170                 6.7642                 6.7898
 IR Inten    --     38.1064                18.3493                 7.5362

 - Thermochemistry -
 -------------------
 Temperature   298.150 Kelvin.  Pressure   1.00000 Atm.
 Atom     1 has atomic number  6 and mass  12.00000

 Molecular mass:   303.14706 amu.
 Principal axes and moments of inertia in atomic units:
                           1         2         3
     Eigenvalues --  3759.78060********************
           X            0.99995   0.00958   0.00098
           Y           -0.00958   0.99995   0.00255
           Z           -0.00095  -0.00255   1.00000
 This molecule is an asymmetric top.
 Rotational symmetry number  1.
 Warning -- assumption of classical behavior for rotation
           may cause significant error
 Rotational temperatures (Kelvin)      0.02304     0.00795     0.00681
 Rotational constants (GHZ):           0.48001     0.16565     0.14190
 Zero-point vibrational energy     952174.5 (Joules/Mol)
                                  227.57517 (Kcal/Mol)
 Warning -- explicit consideration of  29 degrees of freedom as
           vibrations may cause significant error
 Vibrational temperatures:     33.60    37.22    50.15    64.00    79.57
          (Kelvin)            105.42   140.24   155.43   186.89   231.47
                              245.83   266.03   277.42   295.94   331.52
                              357.62   391.89   425.75   469.21   510.57
                              535.18   599.50   601.98   626.67   670.18
                              701.92   719.97   758.48   886.88   907.92
                              994.62  1006.69  1012.84  1035.65  1077.15
                             1090.43  1106.11  1162.91  1172.75  1198.80
                             1219.79  1251.35  1258.47  1267.74  1317.72
                             1367.88  1383.21  1415.27  1425.57  1426.12
                             1443.75  1465.42  1467.63  1468.72  1494.40
                             1516.00  1525.99  1538.35  1564.22  1597.39
                             1634.03  1641.97  1659.71  1668.02  1687.60
                             1698.64  1716.38  1728.03  1732.39  1749.41
                             1766.88  1776.75  1797.05  1816.22  1837.63
                             1870.94  1873.91  1909.68  1926.87  1943.25
                             1945.97  1948.40  1966.11  1969.00  2003.50
                             2033.97  2057.74  2103.51  2145.58  2153.40
                             2162.43  2166.09  2169.57  2180.24  2181.65
                             2196.09  2201.98  2216.45  2361.37  2388.64
                             2526.19  2558.82  4327.96  4434.17  4445.43
                             4451.37  4456.30  4459.70  4477.86  4482.64
                             4497.32  4500.21  4502.91  4508.19  4525.50
                             4546.00  4569.70  4616.15  4622.35  4630.34
                             4644.17  4661.86  4670.96

 Zero-point correction=                           0.362664 (Hartree/Particle)
 Thermal correction to Energy=                    0.382879
 Thermal correction to Enthalpy=                  0.383824
 Thermal correction to Gibbs Free Energy=         0.311355
 Sum of electronic and zero-point Energies=          -1015.770538
 Sum of electronic and thermal Energies=             -1015.750323
 Sum of electronic and thermal Enthalpies=           -1015.749379
 Sum of electronic and thermal Free Energies=        -1015.821847

                     E (Thermal)             CV                S
                      KCal/Mol        Cal/Mol-Kelvin    Cal/Mol-Kelvin
 Total                  240.261             76.709            152.522
 Electronic               0.000              0.000              0.000
 Translational            0.889              2.981             43.024
 Rotational               0.889              2.981             34.609
 Vibrational            238.483             70.748             74.889
 Vibration     1          0.593              1.985              6.327
 Vibration     2          0.593              1.985              6.123
 Vibration     3          0.594              1.983              5.532
 Vibration     4          0.595              1.980              5.049
 Vibration     5          0.596              1.975              4.618
 Vibration     6          0.599              1.967              4.063
 Vibration     7          0.603              1.951              3.504
 Vibration     8          0.606              1.943              3.304
 Vibration     9          0.612              1.923              2.948
 Vibration    10          0.622              1.890              2.539
 Vibration    11          0.626              1.878              2.426
 Vibration    12          0.631              1.860              2.278
 Vibration    13          0.635              1.850              2.201
 Vibration    14          0.640              1.832              2.082
 Vibration    15          0.652              1.795              1.876
 Vibration    16          0.662              1.765              1.741
 Vibration    17          0.675              1.724              1.581
 Vibration    18          0.690              1.681              1.440
 Vibration    19          0.710              1.623              1.279
 Vibration    20          0.731              1.565              1.145
 Vibration    21          0.744              1.530              1.072
 Vibration    22          0.780              1.434              0.903
 Vibration    23          0.781              1.430              0.897
 Vibration    24          0.796              1.393              0.841
 Vibration    25          0.823              1.326              0.749
 Vibration    26          0.844              1.277              0.689
 Vibration    27          0.856              1.249              0.657
 Vibration    28          0.882              1.190              0.594
 Vibration    29          0.976              0.997              0.422

                           ! Non-Optimized Parameters !
 Normal termination of Gaussian 16 at Tue Mar  1 19:44:14 2022.

 ------------------------------------------
 #p b3lyp/6-31G(d) geom=allcheck guess=read
 ------------------------------------------

 Structure from the checkpoint file:  "63.n.pdb.xyz.mst.wat.chk"
 ------------
 63.n.pdb.xyz
 ------------
 Charge =  0 Multiplicity = 1

 SCF Done:  E(RB3LYP) =  -1016.12159107     A.U. after   11 cycles
 Normal termination of Gaussian 16 at Tue Mar  1 19:47:49 2022.
 Gaussian 16:  ES64L-G16RevA.03 25-Dec-2016

 ----------------------------------------------------------------------
 #p b3lyp/6-31G(d) scrf=(iefpcm,read,solvent=water) geom=allcheck guess
 =read
 ----------------------------------------------------------------------

 Structure from the checkpoint file:  "63.n.pdb.xyz.mst.wat.chk"
 ------------
 63.n.pdb.xyz
 ------------
 Charge =  0 Multiplicity = 1

                         Standard orientation:
 ---------------------------------------------------------------------
 Center     Atomic      Atomic             Coordinates (Angstroms)
 Number     Number       Type             X           Y           Z
 ---------------------------------------------------------------------
      1          6           0       -1.127391    4.213094   -0.222065
      2          8           0       -1.347427    2.939409    0.417767
      3          6           0       -1.100735    1.854122   -0.329807
      4          8           0       -0.697404    1.905724   -1.478305
      5          6           0       -1.428147    0.581902    0.424624
      6          6           0       -2.940166    0.241102    0.296931
      7          6           0       -3.308011   -0.207867   -1.143540
      8          6           0       -3.099655   -1.744848   -1.113746
      9          6           0       -2.618926   -2.024588    0.337866
     10          6           0       -1.091760   -1.929498    0.451378
     11          6           0       -0.606852   -0.591612   -0.102161
     12          8           0        0.773754   -0.356865    0.281219
     13          6           0        1.730817   -0.795521   -0.561544
     14          8           0        1.491560   -1.378698   -1.607046
     15          6           0        3.102942   -0.488477   -0.078458
     16          6           0        4.182119   -0.890603   -0.876719
     17          6           0        5.487856   -0.628483   -0.471463
     18          6           0        5.721891    0.036747    0.735487
     19          6           0        4.648490    0.438907    1.534854
     20          6           0        3.340339    0.178609    1.131316
     21          7           0       -3.191095   -0.930590    1.157700
     22          6           0       -4.621588   -1.118879    1.414962
     23          1           0       -1.776224    4.316393   -1.093208
     24          1           0       -0.084551    4.306227   -0.528569
     25          1           0       -1.373344    4.960894    0.528364
     26          1           0       -1.219936    0.743626    1.484348
     27          1           0       -3.526484    1.094153    0.643339
     28          1           0       -4.347299    0.045301   -1.363248
     29          1           0       -2.685768    0.291070   -1.889557
     30          1           0       -4.034444   -2.270854   -1.319147
     31          1           0       -2.367707   -2.083518   -1.851119
     32          1           0       -2.958884   -2.989411    0.719979
     33          1           0       -0.611570   -2.742921   -0.099073
     34          1           0       -0.801696   -2.013508    1.503146
     35          1           0       -0.648148   -0.595939   -1.190277
     36          1           0        3.976777   -1.405064   -1.808011
     37          1           0        6.320785   -0.940971   -1.092084
     38          1           0        6.739083    0.241255    1.052738
     39          1           0        4.831171    0.954735    2.471331
     40          1           0        2.504772    0.487682    1.747043
     41          1           0       -4.760381   -2.021981    2.016605
     42          1           0       -5.001037   -0.265089    1.984625
     43          1           0       -5.228650   -1.219150    0.502288
 ---------------------------------------------------------------------

 SCF Done:  E(RB3LYP) =  -1016.13186734     A.U. after   11 cycles

 The electronic state is 1-A.
 Alpha  occ. eigenvalues --  -19.20188 -19.19704 -19.14745 -19.14244 -14.32634
 Alpha  occ. eigenvalues --  -10.32471 -10.32318 -10.24888 -10.23812 -10.22201
 Alpha  occ. eigenvalues --  -10.21278 -10.20877 -10.20584 -10.20196 -10.20163
 Alpha  occ. eigenvalues --  -10.20082 -10.20005 -10.19786 -10.19782 -10.18403
 Alpha  occ. eigenvalues --  -10.18008 -10.17936  -1.11212  -1.10621  -1.02302
 Alpha  occ. eigenvalues --   -1.01859  -0.94319  -0.86561  -0.82225  -0.78076
 Alpha  occ. eigenvalues --   -0.77221  -0.75698  -0.75367  -0.73081  -0.69264
 Alpha  occ. eigenvalues --   -0.66276  -0.65492  -0.62022  -0.60876  -0.58336
 Alpha  occ. eigenvalues --   -0.57385  -0.56419  -0.55036  -0.53265  -0.52005
 Alpha  occ. eigenvalues --   -0.49786  -0.49128  -0.48870  -0.48129  -0.47353
 Alpha  occ. eigenvalues --   -0.46665  -0.46241  -0.44906  -0.44528  -0.44083
 Alpha  occ. eigenvalues --   -0.43644  -0.42907  -0.42085  -0.41214  -0.40371
 Alpha  occ. eigenvalues --   -0.40263  -0.39818  -0.38999  -0.37748  -0.36618
 Alpha  occ. eigenvalues --   -0.36371  -0.36282  -0.35613  -0.34856  -0.34363
 Alpha  occ. eigenvalues --   -0.34045  -0.33638  -0.32084  -0.31651  -0.30931
 Alpha  occ. eigenvalues --   -0.29908  -0.28372  -0.28153  -0.26249  -0.26101
 Alpha  occ. eigenvalues --   -0.22586
 Alpha virt. eigenvalues --   -0.05020  -0.00919  -0.00073   0.05459   0.06860
 Alpha virt. eigenvalues --    0.09558   0.09981   0.11194   0.11902   0.12614
 Alpha virt. eigenvalues --    0.13134   0.13600   0.14342   0.14811   0.15090

 Mulliken charges:
               1
     1  C   -0.229213
     2  O   -0.462945
     3  C    0.658172
     4  O   -0.530167
     5  C   -0.193544
     6  C   -0.005601
     7  C   -0.310979
     8  C   -0.301833
     9  C    0.001745
    10  C   -0.275973
    11  C    0.113754
    12  O   -0.505596
    13  C    0.622444
    14  O   -0.539828
    15  C    0.043423
    16  C   -0.162286
    17  C   -0.153042
    18  C   -0.129502
    19  C   -0.151648
    20  C   -0.169202
    21  N   -0.410473
    22  C   -0.316860
    23  H    0.179456
    24  H    0.179840
    25  H    0.184878
    26  H    0.172704
    27  H    0.156937
    28  H    0.158686
    29  H    0.162025
    30  H    0.155429
    31  H    0.155824
    32  H    0.145919
    33  H    0.158431
    34  H    0.151571
    35  H    0.177310
    36  H    0.160328
    37  H    0.159706
    38  H    0.160787
    39  H    0.159620
    40  H    0.166888
    41  H    0.161140
    42  H    0.161331
    43  H    0.140346
 Sum of Mulliken charges =  -0.00000

 Dipole moment (field-independent basis, Debye):
    X=             -1.4747    Y=              1.7970    Z=              3.0688  Tot=              3.8499
 Quadrupole moment (field-independent basis, Debye-Ang):
   XX=            -97.6890   YY=           -115.3786   ZZ=           -135.2302
   XY=              2.5871   XZ=              5.5073   YZ=              1.8172

 Normal termination of Gaussian 16 at Tue Mar  1 19:52:17 2022.
