 Gaussian 16, Revision A.03,

 ----------------------------------------------------------------------
 #p b3lyp/6-31G(d) opt=(MaxStep=10,MaxCycles=1000) freq scf=(MaxCycle=2
 000,NoVarAcc,NoIncFock) scrf=(iefpcm,read,solvent=water)
 ----------------------------------------------------------------------

 ------------
 64.n.pdb.xyz
 ------------
 Symbolic Z-matrix:
 Charge =  0 Multiplicity = 1

 SCF Done:  E(RB3LYP) =  -1039.95177391     A.U. after   13 cycles
 SCF Done:  E(RB3LYP) =  -1039.95447089     A.U. after   10 cycles
 SCF Done:  E(RB3LYP) =  -1039.95519030     A.U. after   11 cycles
 SCF Done:  E(RB3LYP) =  -1039.95612680     A.U. after   10 cycles
 SCF Done:  E(RB3LYP) =  -1039.95667687     A.U. after   10 cycles
 SCF Done:  E(RB3LYP) =  -1039.95693420     A.U. after   11 cycles
 SCF Done:  E(RB3LYP) =  -1039.95715811     A.U. after    9 cycles
 SCF Done:  E(RB3LYP) =  -1039.95726946     A.U. after   10 cycles
 SCF Done:  E(RB3LYP) =  -1039.95729968     A.U. after    9 cycles
 SCF Done:  E(RB3LYP) =  -1039.95736808     A.U. after    9 cycles
 SCF Done:  E(RB3LYP) =  -1039.95741369     A.U. after    7 cycles
 SCF Done:  E(RB3LYP) =  -1039.95741343     A.U. after    7 cycles
 SCF Done:  E(RB3LYP) =  -1039.95741721     A.U. after    7 cycles
 SCF Done:  E(RB3LYP) =  -1039.95741503     A.U. after    7 cycles
 SCF Done:  E(RB3LYP) =  -1039.95741471     A.U. after    7 cycles
 SCF Done:  E(RB3LYP) =  -1039.95741457     A.U. after    6 cycles
 SCF Done:  E(RB3LYP) =  -1039.95741434     A.U. after    6 cycles
 Optimization completed.
    -- Stationary point found.
 Normal termination of Gaussian 16 at Tue Mar  1 22:08:57 2022.

 --------------------------------------------------------------------
 #P Geom=AllCheck Guess=TCheck SCRF=Check GenChk RB3LYP/6-31G(d) Freq
 --------------------------------------------------------------------

 Structure from the checkpoint file:  "64.n.pdb.xyz.mst.wat.chk"
 ------------
 64.n.pdb.xyz
 ------------
 Charge =  0 Multiplicity = 1

 SCF Done:  E(RB3LYP) =  -1039.95741434     A.U. after    1 cycles

  Exact polarizability: 358.485  28.912 315.178  17.018  25.798 282.526
 Approx polarizability: 366.544  38.452 354.546  19.755  30.748 321.826

                      1                      2                      3
                      A                      A                      A
 Frequencies --      9.9806                17.1044                24.2918
 Red. masses --      3.7322                 4.6569                 4.0215
 Frc consts  --      0.0002                 0.0008                 0.0014
 IR Inten    --      0.0556                 0.3088                 0.3766

                      4                      5                      6
                      A                      A                      A
 Frequencies --     30.5790                35.3413                47.8216
 Red. masses --      3.5899                 3.6508                 2.6760
 Frc consts  --      0.0020                 0.0027                 0.0036
 IR Inten    --      0.8939                 0.1307                 0.1734

                      7                      8                      9
                      A                      A                      A
 Frequencies --     66.3321                72.9447                81.7339
 Red. masses --      3.9204                 4.4691                 2.2915
 Frc consts  --      0.0102                 0.0140                 0.0090
 IR Inten    --      0.3813                 0.2598                 3.5125

                     10                     11                     12
                      A                      A                      A
 Frequencies --     95.7879               121.9527               131.4580
 Red. masses --      2.9658                 5.2074                 4.2412
 Frc consts  --      0.0160                 0.0456                 0.0432
 IR Inten    --      0.3533                 1.9163                 1.7225

                     13                     14                     15
                      A                      A                      A
 Frequencies --    173.9617               196.5503               199.2366
 Red. masses --      3.5471                 1.3385                 3.0411
 Frc consts  --      0.0632                 0.0305                 0.0711
 IR Inten    --      2.9001                 0.6442                 1.4283

                     16                     17                     18
                      A                      A                      A
 Frequencies --    235.9677               247.1569               265.6000
 Red. masses --      2.2086                 2.1464                 3.8654
 Frc consts  --      0.0725                 0.0773                 0.1607
 IR Inten    --      3.0004                 1.0342                 2.9179

                     19                     20                     21
                      A                      A                      A
 Frequencies --    284.8074               293.6952               297.8266
 Red. masses --      3.9375                 3.6174                 3.1816
 Frc consts  --      0.1882                 0.1838                 0.1663
 IR Inten    --      1.1450                12.7562                 2.2501

                     22                     23                     24
                      A                      A                      A
 Frequencies --    314.1682               359.6719               391.1068
 Red. masses --      2.6949                 2.0519                 3.2943
 Frc consts  --      0.1567                 0.1564                 0.2969
 IR Inten    --      0.1174                 6.5990                 5.5029

                     25                     26                     27
                      A                      A                      A
 Frequencies --    403.9742               420.2245               425.3897
 Red. masses --      6.5921                 2.9758                 2.9848
 Frc consts  --      0.6338                 0.3096                 0.3182
 IR Inten    --     15.3356                 0.0266                 0.0294

                     28                     29                     30
                      A                      A                      A
 Frequencies --    444.6447               452.5046               497.9262
 Red. masses --      3.5542                 3.0898                 3.0977
 Frc consts  --      0.4140                 0.3728                 0.4525
 IR Inten    --      4.9776                 3.5974                 4.8216

                     31                     32                     33
                      A                      A                      A
 Frequencies --    501.9755               522.4572               551.7834
 Red. masses --      3.2975                 3.2117                 3.6834
 Frc consts  --      0.4895                 0.5165                 0.6607
 IR Inten    --      0.2778                11.8259                 3.3443

                     34                     35                     36
                      A                      A                      A
 Frequencies --    583.2833               612.6647               633.2998
 Red. masses --      2.8117                 4.0711                 5.2483
 Frc consts  --      0.5636                 0.9003                 1.2402
 IR Inten    --     19.3742                24.5184                 1.7185

                     37                     38                     39
                      A                      A                      A
 Frequencies --    634.7863               645.5391               675.0125
 Red. masses --      6.3334                 3.2412                 4.7081
 Frc consts  --      1.5036                 0.7958                 1.2639
 IR Inten    --      0.1756                13.3495                11.3445

                     40                     41                     42
                      A                      A                      A
 Frequencies --    715.7180               718.2919               754.9792
 Red. masses --      1.7748                 1.9041                 3.2647
 Frc consts  --      0.5357                 0.5788                 1.0964
 IR Inten    --     55.8769                38.3598                 2.2437

                     43                     44                     45
                      A                      A                      A
 Frequencies --    770.1429               784.4171               788.3119
 Red. masses --      1.8025                 2.2367                 1.4536
 Frc consts  --      0.6299                 0.8109                 0.5322
 IR Inten    --     29.2176                10.3068                12.5451

                     46                     47                     48
                      A                      A                      A
 Frequencies --    804.9766               812.3987               833.0237
 Red. masses --      2.0991                 1.4089                 1.5534
 Frc consts  --      0.8014                 0.5479                 0.6351
 IR Inten    --     12.2209                21.3215                 0.8372

                     49                     50                     51
                      A                      A                      A
 Frequencies --    848.7109               860.5703               867.6442
 Red. masses --      3.0340                 1.2441                 1.2493
 Frc consts  --      1.2876                 0.5429                 0.5541
 IR Inten    --      2.8365                 0.0681                 0.1708

                     52                     53                     54
                      A                      A                      A
 Frequencies --    880.3575               931.1704               940.4466
 Red. masses --      2.4958                 1.4646                 1.5120
 Frc consts  --      1.1397                 0.7482                 0.7879
 IR Inten    --     19.0468                 3.8411                 1.4248

                     55                     56                     57
                      A                      A                      A
 Frequencies --    950.0482               957.0537               978.3479
 Red. masses --      1.8108                 2.8922                 1.3534
 Frc consts  --      0.9630                 1.5608                 0.7632
 IR Inten    --      4.9020                14.7756                 0.0230

                     58                     59                     60
                      A                      A                      A
 Frequencies --    981.7619               999.0768              1001.0872
 Red. masses --      1.3509                 2.3241                 1.7202
 Frc consts  --      0.7672                 1.3668                 1.0157
 IR Inten    --      0.0137                 5.0957                 4.6974

                     61                     62                     63
                      A                      A                      A
 Frequencies --   1004.4676              1010.0859              1016.2507
 Red. masses --      1.2645                 1.2694                 6.2269
 Frc consts  --      0.7517                 0.7631                 3.7890
 IR Inten    --      0.1748                 0.0729                 0.4772

                     64                     65                     66
                      A                      A                      A
 Frequencies --   1018.5052              1021.5425              1032.5391
 Red. masses --      5.5404                 2.3777                 2.1934
 Frc consts  --      3.3862                 1.4619                 1.3778
 IR Inten    --      4.8827                11.0484                 1.8111

                     67                     68                     69
                      A                      A                      A
 Frequencies --   1041.9015              1053.8774              1056.8374
 Red. masses --      1.7787                 2.1940                 1.9798
 Frc consts  --      1.1377                 1.4357                 1.3028
 IR Inten    --      3.3955                 6.2648                 2.5740

                     70                     71                     72
                      A                      A                      A
 Frequencies --   1064.7174              1067.5645              1101.7832
 Red. masses --      2.5290                 2.6836                 1.6689
 Frc consts  --      1.6891                 1.8020                 1.1937
 IR Inten    --     13.1079               104.1963                 2.5494

                     73                     74                     75
                      A                      A                      A
 Frequencies --   1106.0674              1109.8008              1114.0431
 Red. masses --      1.5592                 1.7659                 2.5721
 Frc consts  --      1.1239                 1.2815                 1.8808
 IR Inten    --     11.6299                15.8750                12.8259

                     76                     77                     78
                      A                      A                      A
 Frequencies --   1123.7391              1143.6115              1163.1953
 Red. masses --      2.3954                 2.2851                 2.4745
 Frc consts  --      1.7822                 1.7608                 1.9726
 IR Inten    --      8.7941                38.1221                18.1293

                     79                     80                     81
                      A                      A                      A
 Frequencies --   1171.2358              1184.9823              1189.7034
 Red. masses --      1.7177                 1.0932                 1.0954
 Frc consts  --      1.3883                 0.9044                 0.9134
 IR Inten    --     35.2253                 0.0616                 0.0845

                     82                     83                     84
                      A                      A                      A
 Frequencies --   1191.3256              1200.5381              1200.7047
 Red. masses --      1.5351                 1.1328                 1.1276
 Frc consts  --      1.2837                 0.9619                 0.9578
 IR Inten    --      8.4219                 0.6729                 0.2682

                     85                     86                     87
                      A                      A                      A
 Frequencies --   1231.6326              1243.7089              1269.9362
 Red. masses --      1.6910                 1.9162                 1.5809
 Frc consts  --      1.5113                 1.7463                 1.5021
 IR Inten    --      2.5355                 0.8062               100.4450

                     88                     89                     90
                      A                      A                      A
 Frequencies --   1281.9927              1292.0027              1299.3999
 Red. masses --      1.4461                 2.6382                 1.3256
 Frc consts  --      1.4003                 2.5947                 1.3187
 IR Inten    --     29.7222               196.9421                37.2397

                     91                     92                     93
                      A                      A                      A
 Frequencies --   1315.0733              1324.0504              1326.3569
 Red. masses --      1.5864                 1.3288                 1.5348
 Frc consts  --      1.6165                 1.3725                 1.5909
 IR Inten    --     66.5502                14.0551                 6.7478

                     94                     95                     96
                      A                      A                      A
 Frequencies --   1333.2885              1345.3369              1351.7858
 Red. masses --      2.5861                 1.3928                 1.4343
 Frc consts  --      2.7086                 1.4853                 1.5442
 IR Inten    --      9.5238                11.6643                11.3680

                     97                     98                     99
                      A                      A                      A
 Frequencies --   1358.0208              1359.9814              1363.7545
 Red. masses --      2.0286                 2.6305                 1.4936
 Frc consts  --      2.2042                 2.8666                 1.6366
 IR Inten    --      1.2155                 0.0752                 2.0157

                    100                    101                    102
                      A                      A                      A
 Frequencies --   1380.4146              1382.1337              1390.3095
 Red. masses --      1.3760                 1.4138                 1.4235
 Frc consts  --      1.5449                 1.5912                 1.6211
 IR Inten    --      6.9429                 8.6723                23.8872

                    103                    104                    105
                      A                      A                      A
 Frequencies --   1407.4801              1420.2949              1424.1960
 Red. masses --      1.8453                 1.2568                 1.4023
 Frc consts  --      2.1538                 1.4937                 1.6759
 IR Inten    --    174.3491                 7.5845                42.7003

                    106                    107                    108
                      A                      A                      A
 Frequencies --   1444.1632              1470.0015              1479.5932
 Red. masses --      1.4451                 1.7734                 1.1002
 Frc consts  --      1.7757                 2.2579                 1.4191
 IR Inten    --      2.2354                79.4508                28.8427

                    109                    110                    111
                      A                      A                      A
 Frequencies --   1494.2288              1497.4291              1502.4758
 Red. masses --      2.1942                 2.1562                 1.0955
 Frc consts  --      2.8864                 2.8486                 1.4571
 IR Inten    --      4.3573                 6.5473                 0.0936

                    112                    113                    114
                      A                      A                      A
 Frequencies --   1504.3272              1506.5932              1514.9011
 Red. masses --      1.0448                 1.0937                 1.0947
 Frc consts  --      1.3930                 1.4626                 1.4802
 IR Inten    --      9.1136                 3.7710                15.6624

                    115                    116                    117
                      A                      A                      A
 Frequencies --   1515.1620              1519.2209              1522.1289
 Red. masses --      1.0654                 1.0880                 1.1028
 Frc consts  --      1.4410                 1.4795                 1.5054
 IR Inten    --      9.9169                 1.5667                 6.7676

                    118                    119                    120
                      A                      A                      A
 Frequencies --   1528.7011              1541.9479              1542.9741
 Red. masses --      1.1047                 2.3324                 2.2470
 Frc consts  --      1.5210                 3.2673                 3.1519
 IR Inten    --      2.9074                86.9765                17.8721

                    121                    122                    123
                      A                      A                      A
 Frequencies --   1640.9998              1641.0080              1653.1446
 Red. masses --      5.6664                 5.6355                 5.8261
 Frc consts  --      8.9902                 8.9414                 9.3810
 IR Inten    --      3.3592                 4.9010                83.9018

                    124                    125                    126
                      A                      A                      A
 Frequencies --   1662.1451              1706.6195              2922.3028
 Red. masses --      5.7360                 9.7355                 1.0738
 Frc consts  --      9.3368                16.7064                 5.4028
 IR Inten    --      9.5016               524.7225                71.0700

                    127                    128                    129
                      A                      A                      A
 Frequencies --   2928.1526              2947.4890              3069.4191
 Red. masses --      1.0726                 1.0718                 1.0657
 Frc consts  --      5.4182                 5.4861                 5.9154
 IR Inten    --    173.4626               185.6954                24.8529

                    130                    131                    132
                      A                      A                      A
 Frequencies --   3072.1573              3072.2558              3076.3256
 Red. masses --      1.0364                 1.0600                 1.0654
 Frc consts  --      5.7633                 5.8951                 5.9408
 IR Inten    --     39.6239                48.8375                60.1867

                    133                    134                    135
                      A                      A                      A
 Frequencies --   3079.0447              3083.0465              3084.0354
 Red. masses --      1.0714                 1.0844                 1.0848
 Frc consts  --      5.9848                 6.0727                 6.0792
 IR Inten    --     29.6821                29.4207                22.4858

                    136                    137                    138
                      A                      A                      A
 Frequencies --   3092.5581              3112.5267              3113.5001
 Red. masses --      1.0852                 1.0937                 1.0961
 Frc consts  --      6.1147                 6.2427                 6.2605
 IR Inten    --     97.7572                44.3500                 7.7755

                    139                    140                    141
                      A                      A                      A
 Frequencies --   3121.8463              3136.5411              3141.6669
 Red. masses --      1.0959                 1.1032                 1.0991
 Frc consts  --      6.2930                 6.3946                 6.3917
 IR Inten    --     87.5930                51.7899                18.2790

                    142                    143                    144
                      A                      A                      A
 Frequencies --   3150.1570              3152.6064              3189.3570
 Red. masses --      1.0974                 1.1022                 1.0864
 Frc consts  --      6.4163                 6.4544                 6.5109
 IR Inten    --     46.3215                52.5440                17.5879

                    145                    146                    147
                      A                      A                      A
 Frequencies --   3190.3081              3202.0414              3204.4141
 Red. masses --      1.0877                 1.0896                 1.0855
 Frc consts  --      6.5225                 6.5822                 6.5674
 IR Inten    --     13.0082                14.1250                 1.0026

                    148                    149                    150
                      A                      A                      A
 Frequencies --   3209.8988              3211.4399              3219.5038
 Red. masses --      1.0939                 1.0883                 1.0918
 Frc consts  --      6.6404                 6.6128                 6.6675
 IR Inten    --     76.8163                 4.6232                38.0348

                    151                    152                    153
                      A                      A                      A
 Frequencies --   3221.8439              3225.6407              3232.1274
 Red. masses --      1.0978                 1.0949                 1.0979
 Frc consts  --      6.7138                 6.7121                 6.7576
 IR Inten    --     33.5753                45.7995                11.4741

 - Thermochemistry -
 -------------------
 Temperature   298.150 Kelvin.  Pressure   1.00000 Atm.
 Atom     1 has atomic number  6 and mass  12.00000

 Molecular mass:   336.22016 amu.
 Principal axes and moments of inertia in atomic units:
                           1         2         3
     Eigenvalues --  3541.24395********************
           X            0.99999  -0.00420   0.00094
           Y            0.00420   0.99997   0.00677
           Z           -0.00097  -0.00677   0.99998
 This molecule is an asymmetric top.
 Rotational symmetry number  1.
 Warning -- assumption of classical behavior for rotation
           may cause significant error
 Rotational temperatures (Kelvin)      0.02446     0.00351     0.00327
 Rotational constants (GHZ):           0.50963     0.07322     0.06815
 Zero-point vibrational energy    1214324.6 (Joules/Mol)
                                  290.23055 (Kcal/Mol)
 Warning -- explicit consideration of  35 degrees of freedom as
           vibrations may cause significant error
 Vibrational temperatures:     14.36    24.61    34.95    44.00    50.85
          (Kelvin)             68.80    95.44   104.95   117.60   137.82
                              175.46   189.14   250.29   282.79   286.66
                              339.50   355.60   382.14   409.77   422.56
                              428.51   452.02   517.49   562.72   581.23
                              604.61   612.04   639.74   651.05   716.40
                              722.23   751.70   793.89   839.21   881.49
                              911.18   913.32   928.79   971.19  1029.76
                             1033.46  1086.25  1108.06  1128.60  1134.20
                             1158.18  1168.86  1198.54  1221.11  1238.17
                             1248.35  1266.64  1339.75  1353.09  1366.91
                             1376.99  1407.62  1412.54  1437.45  1440.34
                             1445.20  1453.29  1462.16  1465.40  1469.77
                             1485.59  1499.06  1516.29  1520.55  1531.89
                             1535.99  1585.22  1591.38  1596.76  1602.86
                             1616.81  1645.40  1673.58  1685.15  1704.93
                             1711.72  1714.05  1727.31  1727.55  1772.04
                             1789.42  1827.15  1844.50  1858.90  1869.55
                             1892.10  1905.01  1908.33  1918.30  1935.64
                             1944.92  1953.89  1956.71  1962.14  1986.11
                             1988.58  2000.35  2025.05  2043.49  2049.10
                             2077.83  2115.00  2128.80  2149.86  2154.47
                             2161.73  2164.39  2167.65  2179.60  2179.98
                             2185.82  2190.00  2199.46  2218.52  2220.00
                             2361.03  2361.04  2378.51  2391.46  2455.44
                             4204.54  4212.96  4240.78  4416.21  4420.15
                             4420.29  4426.15  4430.06  4435.82  4437.24
                             4449.50  4478.23  4479.63  4491.64  4512.78
                             4520.16  4532.37  4535.90  4588.77  4590.14
                             4607.02  4610.44  4618.33  4620.55  4632.15
                             4635.51  4640.98  4650.31

 Zero-point correction=                           0.462512 (Hartree/Particle)
 Thermal correction to Energy=                    0.486063
 Thermal correction to Enthalpy=                  0.487007
 Thermal correction to Gibbs Free Energy=         0.404660
 Sum of electronic and zero-point Energies=          -1039.494903
 Sum of electronic and thermal Energies=             -1039.471351
 Sum of electronic and thermal Enthalpies=           -1039.470407
 Sum of electronic and thermal Free Energies=        -1039.552755

                     E (Thermal)             CV                S
                      KCal/Mol        Cal/Mol-Kelvin    Cal/Mol-Kelvin
 Total                  305.009             90.561            173.316
 Electronic               0.000              0.000              0.000
 Translational            0.889              2.981             43.333
 Rotational               0.889              2.981             36.090
 Vibrational            303.232             84.599             93.893
 Vibration     1          0.593              1.987              8.015
 Vibration     2          0.593              1.986              6.945
 Vibration     3          0.593              1.985              6.248
 Vibration     4          0.594              1.984              5.791
 Vibration     5          0.594              1.982              5.504
 Vibration     6          0.595              1.978              4.905
 Vibration     7          0.598              1.970              4.259
 Vibration     8          0.599              1.967              4.072
 Vibration     9          0.600              1.962              3.849
 Vibration    10          0.603              1.952              3.538
 Vibration    11          0.609              1.931              3.069
 Vibration    12          0.612              1.922              2.925
 Vibration    13          0.627              1.875              2.392
 Vibration    14          0.636              1.845              2.165
 Vibration    15          0.637              1.841              2.140
 Vibration    16          0.655              1.786              1.833
 Vibration    17          0.661              1.767              1.751
 Vibration    18          0.671              1.736              1.625
 Vibration    19          0.683              1.702              1.505
 Vibration    20          0.688              1.685              1.453
 Vibration    21          0.691              1.678              1.429
 Vibration    22          0.702              1.647              1.340
 Vibration    23          0.734              1.555              1.124
 Vibration    24          0.759              1.489              0.996
 Vibration    25          0.769              1.462              0.948
 Vibration    26          0.783              1.426              0.891
 Vibration    27          0.787              1.415              0.874
 Vibration    28          0.804              1.373              0.812
 Vibration    29          0.811              1.355              0.788
 Vibration    30          0.853              1.255              0.663
 Vibration    31          0.857              1.246              0.653
 Vibration    32          0.877              1.200              0.604
 Vibration    33          0.907              1.136              0.540
 Vibration    34          0.940              1.067              0.479
 Vibration    35          0.972              1.005              0.428

                           ! Non-Optimized Parameters !
 Normal termination of Gaussian 16 at Tue Mar  1 23:43:06 2022.

 ------------------------------------------
 #p b3lyp/6-31G(d) geom=allcheck guess=read
 ------------------------------------------

 Structure from the checkpoint file:  "64.n.pdb.xyz.mst.wat.chk"
 ------------
 64.n.pdb.xyz
 ------------
 Charge =  0 Multiplicity = 1

 SCF Done:  E(RB3LYP) =  -1039.94599740     A.U. after   11 cycles
 Normal termination of Gaussian 16 at Tue Mar  1 23:48:01 2022.
 Gaussian 16:  ES64L-G16RevA.03 25-Dec-2016

 ----------------------------------------------------------------------
 #p b3lyp/6-31G(d) scrf=(iefpcm,read,solvent=water) geom=allcheck guess
 =read
 ----------------------------------------------------------------------

 Structure from the checkpoint file:  "64.n.pdb.xyz.mst.wat.chk"
 ------------
 64.n.pdb.xyz
 ------------
 Charge =  0 Multiplicity = 1

                         Standard orientation:
 ---------------------------------------------------------------------
 Center     Atomic      Atomic             Coordinates (Angstroms)
 Number     Number       Type             X           Y           Z
 ---------------------------------------------------------------------
      1          6           0       -4.805010    3.501169   -0.287269
      2          6           0       -4.561051    1.996616   -0.372849
      3          6           0       -3.085735    1.636063   -0.222206
      4          8           0       -2.204999    2.498982   -0.309654
      5          7           0       -2.787028    0.321064    0.017490
      6          6           0       -1.382623   -0.132276    0.191229
      7          6           0       -0.684577    0.508778    1.397795
      8          6           0        0.747133   -0.016691    1.521315
      9          7           0        1.514174    0.235406    0.296673
     10          6           0        2.917318   -0.144925    0.470029
     11          6           0        3.836728    0.443593   -0.611061
     12          6           0        5.288230    0.108302   -0.367130
     13          6           0        5.849803   -1.069898   -0.878717
     14          6           0        7.182367   -1.399499   -0.624444
     15          6           0        7.978692   -0.551486    0.148432
     16          6           0        7.432499    0.626420    0.663071
     17          6           0        6.099007    0.950651    0.406672
     18          6           0        0.891291   -0.454872   -0.837587
     19          6           0       -0.535570    0.044258   -1.076112
     20          6           0       -3.798642   -0.700208    0.041436
     21          6           0       -4.264958   -1.193050    1.265377
     22          6           0       -5.213362   -2.216134    1.290153
     23          6           0       -5.701146   -2.749811    0.095150
     24          6           0       -5.234081   -2.260686   -1.126127
     25          6           0       -4.281309   -1.241114   -1.154898
     26          1           0       -4.236048    4.035613   -1.050534
     27          1           0       -4.508104    3.896183    0.688467
     28          1           0       -5.866825    3.717948   -0.433205
     29          1           0       -4.909850    1.612517   -1.338577
     30          1           0       -5.144034    1.462579    0.382579
     31          1           0       -1.464978   -1.205025    0.388746
     32          1           0       -1.237504    0.280685    2.315153
     33          1           0       -0.671009    1.592581    1.270097
     34          1           0        0.725779   -1.097967    1.760551
     35          1           0        1.254679    0.483054    2.352382
     36          1           0        3.040546   -1.243909    0.497731
     37          1           0        3.242656    0.233228    1.444921
     38          1           0        3.698381    1.529331   -0.624800
     39          1           0        3.538775    0.069688   -1.595058
     40          1           0        5.236942   -1.730235   -1.485982
     41          1           0        7.599158   -2.314686   -1.033166
     42          1           0        9.015906   -0.803838    0.343987
     43          1           0        8.044989    1.294769    1.260240
     44          1           0        5.680624    1.870557    0.805759
     45          1           0        0.881027   -1.550069   -0.668428
     46          1           0        1.492300   -0.277809   -1.732821
     47          1           0       -0.982884   -0.513401   -1.905705
     48          1           0       -0.517805    1.101532   -1.347683
     49          1           0       -3.885585   -0.769247    2.188795
     50          1           0       -5.572803   -2.592665    2.242103
     51          1           0       -6.440292   -3.543565    0.115977
     52          1           0       -5.606581   -2.674358   -2.057432
     53          1           0       -3.907499   -0.861838   -2.099559
 ---------------------------------------------------------------------

 SCF Done:  E(RB3LYP) =  -1039.95609063     A.U. after   10 cycles

 The electronic state is 1-A.
 Alpha  occ. eigenvalues --  -19.11376 -14.36469 -14.32282 -10.28668 -10.23282
 Alpha  occ. eigenvalues --  -10.22337 -10.20552 -10.20340 -10.20301 -10.19762
 Alpha  occ. eigenvalues --  -10.19757 -10.19708 -10.19698 -10.19603 -10.19601
 Alpha  occ. eigenvalues --  -10.18960 -10.18950 -10.18836 -10.18811 -10.18735
 Alpha  occ. eigenvalues --  -10.18733 -10.18339 -10.17620 -10.17554 -10.17282
 Alpha  occ. eigenvalues --   -1.03145  -0.94172  -0.92303  -0.85530  -0.85332
 Alpha  occ. eigenvalues --   -0.80190  -0.77791  -0.76518  -0.75329  -0.75015
 Alpha  occ. eigenvalues --   -0.74274  -0.74180  -0.71252  -0.66729  -0.63749
 Alpha  occ. eigenvalues --   -0.62641  -0.61583  -0.61270  -0.60351  -0.60264
 Alpha  occ. eigenvalues --   -0.57409  -0.56492  -0.54187  -0.51693  -0.50935
 Alpha  occ. eigenvalues --   -0.49270  -0.48942  -0.47506  -0.46946  -0.46538
 Alpha  occ. eigenvalues --   -0.45406  -0.45102  -0.44848  -0.44568  -0.43992
 Alpha  occ. eigenvalues --   -0.42843  -0.42755  -0.42369  -0.41764  -0.41036
 Alpha  occ. eigenvalues --   -0.40786  -0.39836  -0.38818  -0.38305  -0.37686
 Alpha  occ. eigenvalues --   -0.37127  -0.36904  -0.36669  -0.35792  -0.35402
 Alpha  occ. eigenvalues --   -0.35327  -0.34838  -0.34816  -0.34211  -0.33636
 Alpha  occ. eigenvalues --   -0.33322  -0.33005  -0.32076  -0.31574  -0.26283
 Alpha  occ. eigenvalues --   -0.25957  -0.25151  -0.24698  -0.24353  -0.24106
 Alpha  occ. eigenvalues --   -0.21730
 Alpha virt. eigenvalues --   -0.01400  -0.01111  -0.00203  -0.00161   0.02508
 Alpha virt. eigenvalues --    0.08148   0.09269   0.09808   0.10734   0.11001
 Alpha virt. eigenvalues --    0.11434   0.12595   0.12931   0.13328   0.14289

 Mulliken charges:
               1
     1  C   -0.440574
     2  C   -0.360673
     3  C    0.605275
     4  O   -0.580166
     5  N   -0.510578
     6  C    0.025781
     7  C   -0.273168
     8  C   -0.132140
     9  N   -0.422516
    10  C   -0.105603
    11  C   -0.362423
    12  C    0.154797
    13  C   -0.197885
    14  C   -0.150215
    15  C   -0.152931
    16  C   -0.150102
    17  C   -0.198280
    18  C   -0.138886
    19  C   -0.269779
    20  C    0.211025
    21  C   -0.143623
    22  C   -0.158313
    23  C   -0.135621
    24  C   -0.158420
    25  C   -0.145468
    26  H    0.153910
    27  H    0.151672
    28  H    0.147716
    29  H    0.179232
    30  H    0.171852
    31  H    0.149655
    32  H    0.142615
    33  H    0.161974
    34  H    0.115188
    35  H    0.149538
    36  H    0.119828
    37  H    0.146340
    38  H    0.152577
    39  H    0.158741
    40  H    0.142318
    41  H    0.147991
    42  H    0.147206
    43  H    0.148032
    44  H    0.142984
    45  H    0.115260
    46  H    0.154473
    47  H    0.141518
    48  H    0.160517
    49  H    0.159038
    50  H    0.158409
    51  H    0.155638
    52  H    0.158304
    53  H    0.157960
 Sum of Mulliken charges =  -0.00000

 Dipole moment (field-independent basis, Debye):
    X=             -2.8589    Y=             -4.9538    Z=              0.5290  Tot=              5.7439
 Quadrupole moment (field-independent basis, Debye-Ang):
   XX=           -126.2617   YY=           -154.2320   ZZ=           -140.7261
   XY=             10.0001   XZ=              1.7633   YZ=              4.5018

 Normal termination of Gaussian 16 at Tue Mar  1 23:53:59 2022.
