 Gaussian 16, Revision A.03,

 ----------------------------------------------------------------------
 #p b3lyp/6-31G(d) opt=(MaxStep=10,MaxCycles=1000) freq scf=(MaxCycle=2
 000,NoVarAcc,NoIncFock) scrf=(iefpcm,read,solvent=water)
 ----------------------------------------------------------------------

 ------------
 65.n.pdb.xyz
 ------------
 Symbolic Z-matrix:
 Charge =  0 Multiplicity = 1

 SCF Done:  E(RB3LYP) =  -717.602381594     A.U. after   12 cycles
 SCF Done:  E(RB3LYP) =  -717.605487338     A.U. after   10 cycles
 SCF Done:  E(RB3LYP) =  -717.605049471     A.U. after   10 cycles
 SCF Done:  E(RB3LYP) =  -717.606130082     A.U. after   10 cycles
 SCF Done:  E(RB3LYP) =  -717.606341686     A.U. after   10 cycles
 SCF Done:  E(RB3LYP) =  -717.606800539     A.U. after    9 cycles
 SCF Done:  E(RB3LYP) =  -717.606658722     A.U. after    9 cycles
 SCF Done:  E(RB3LYP) =  -717.606662259     A.U. after    9 cycles
 SCF Done:  E(RB3LYP) =  -717.606797301     A.U. after    9 cycles
 SCF Done:  E(RB3LYP) =  -717.606796441     A.U. after    6 cycles
 SCF Done:  E(RB3LYP) =  -717.606817742     A.U. after    9 cycles
 SCF Done:  E(RB3LYP) =  -717.606809345     A.U. after    9 cycles
 SCF Done:  E(RB3LYP) =  -717.606815792     A.U. after    7 cycles
 SCF Done:  E(RB3LYP) =  -717.606822567     A.U. after    9 cycles
 SCF Done:  E(RB3LYP) =  -717.606816938     A.U. after    9 cycles
 SCF Done:  E(RB3LYP) =  -717.606822755     A.U. after    6 cycles
 SCF Done:  E(RB3LYP) =  -717.606818552     A.U. after    6 cycles
 Optimization completed.
    -- Stationary point found.
 Normal termination of Gaussian 16 at Tue Mar  1 23:19:29 2022.

 --------------------------------------------------------------------
 #P Geom=AllCheck Guess=TCheck SCRF=Check GenChk RB3LYP/6-31G(d) Freq
 --------------------------------------------------------------------

 Structure from the checkpoint file:  "65.n.pdb.xyz.mst.wat.chk"
 ------------
 65.n.pdb.xyz
 ------------
 Charge =  0 Multiplicity = 1

 SCF Done:  E(RB3LYP) =  -717.606818552     A.U. after    1 cycles

  Exact polarizability: 258.694  27.926 241.389  17.410 -20.768 222.318
 Approx polarizability: 267.715  32.558 249.270  23.538 -27.039 250.405

                      1                      2                      3
                      A                      A                      A
 Frequencies --     24.8748                55.3514                66.7627
 Red. masses --      3.5412                 3.0531                 2.9558
 Frc consts  --      0.0013                 0.0055                 0.0078
 IR Inten    --      0.1575                 0.3280                 0.1369

                      4                      5                      6
                      A                      A                      A
 Frequencies --     78.2968               104.5136               158.8851
 Red. masses --      3.3690                 3.1557                 2.3895
 Frc consts  --      0.0122                 0.0203                 0.0355
 IR Inten    --      0.1516                 0.5146                 0.0561

                      7                      8                      9
                      A                      A                      A
 Frequencies --    204.7740               208.3960               226.9224
 Red. masses --      2.0799                 2.7406                 2.6239
 Frc consts  --      0.0514                 0.0701                 0.0796
 IR Inten    --      0.4172                 0.5835                 0.6575

                     10                     11                     12
                      A                      A                      A
 Frequencies --    265.9144               276.9618               289.8884
 Red. masses --      2.6884                 4.0714                 1.9780
 Frc consts  --      0.1120                 0.1840                 0.0979
 IR Inten    --      1.2079                 0.0135                 2.2963

                     13                     14                     15
                      A                      A                      A
 Frequencies --    323.1838               342.3849               367.0630
 Red. masses --      2.9467                 3.4592                 2.1472
 Frc consts  --      0.1813                 0.2389                 0.1704
 IR Inten    --      0.3818                 1.0267                 0.8186

                     16                     17                     18
                      A                      A                      A
 Frequencies --    405.5999               420.1285               431.1749
 Red. masses --      2.1833                 2.9244                 2.3099
 Frc consts  --      0.2116                 0.3041                 0.2530
 IR Inten    --      1.4167                 0.0403                 1.4495

                     19                     20                     21
                      A                      A                      A
 Frequencies --    458.8246               471.1555               484.6621
 Red. masses --      2.8139                 2.6775                 2.7509
 Frc consts  --      0.3490                 0.3502                 0.3807
 IR Inten    --      1.8153                 7.0494                 0.7661

                     22                     23                     24
                      A                      A                      A
 Frequencies --    534.4519               547.3126               595.0419
 Red. masses --      2.4245                 1.9681                 2.9056
 Frc consts  --      0.4080                 0.3474                 0.6061
 IR Inten    --      3.8380                 8.4226                 2.5997

                     25                     26                     27
                      A                      A                      A
 Frequencies --    629.7792               634.8166               704.8994
 Red. masses --      3.2665                 5.2306                 3.5629
 Frc consts  --      0.7633                 1.2419                 1.0431
 IR Inten    --      7.0090                 2.0980                 5.7047

                     28                     29                     30
                      A                      A                      A
 Frequencies --    715.5550               767.5301               776.4189
 Red. masses --      1.7387                 2.1402                 1.4680
 Frc consts  --      0.5245                 0.7428                 0.5214
 IR Inten    --     43.1376                21.5581                 9.3324

                     31                     32                     33
                      A                      A                      A
 Frequencies --    792.0879               824.8248               838.6998
 Red. masses --      1.9788                 1.5339                 2.7804
 Frc consts  --      0.7315                 0.6149                 1.1523
 IR Inten    --     25.8819                 0.4188                 1.8903

                     34                     35                     36
                      A                      A                      A
 Frequencies --    852.8717               861.7846               878.0916
 Red. masses --      2.7687                 1.2571                 1.4598
 Frc consts  --      1.1866                 0.5501                 0.6632
 IR Inten    --      0.6962                 0.7795                 7.4612

                     37                     38                     39
                      A                      A                      A
 Frequencies --    885.0951               905.9523               923.9164
 Red. masses --      2.0995                 2.5127                 1.8449
 Frc consts  --      0.9690                 1.2151                 0.9279
 IR Inten    --      4.9340                 1.3350                22.2133

                     40                     41                     42
                      A                      A                      A
 Frequencies --    932.3624               943.7600               964.3149
 Red. masses --      1.9647                 1.7924                 2.0074
 Frc consts  --      1.0063                 0.9406                 1.0998
 IR Inten    --      2.3512                11.0080                21.3855

                     43                     44                     45
                      A                      A                      A
 Frequencies --    979.2188               981.7289               983.6099
 Red. masses --      1.4769                 1.6283                 1.3025
 Frc consts  --      0.8344                 0.9246                 0.7424
 IR Inten    --      6.8466                 4.7133                 1.9381

                     46                     47                     48
                      A                      A                      A
 Frequencies --   1004.0272              1014.7020              1033.6462
 Red. masses --      1.2550                 5.6446                 2.7043
 Frc consts  --      0.7454                 3.4242                 1.7024
 IR Inten    --      0.9564                 1.0236                16.3137

                     49                     50                     51
                      A                      A                      A
 Frequencies --   1045.9080              1050.4592              1060.4014
 Red. masses --      1.9101                 2.1571                 2.3020
 Frc consts  --      1.2311                 1.4024                 1.5251
 IR Inten    --      2.3660                30.8319                 4.8199

                     52                     53                     54
                      A                      A                      A
 Frequencies --   1072.7563              1090.4912              1093.5502
 Red. masses --      1.7845                 1.6673                 2.0067
 Frc consts  --      1.2099                 1.1682                 1.4139
 IR Inten    --     10.5922                 8.3339                 9.7875

                     55                     56                     57
                      A                      A                      A
 Frequencies --   1099.9426              1120.3167              1127.1288
 Red. masses --      2.3157                 2.2593                 2.6581
 Frc consts  --      1.6507                 1.6707                 1.9896
 IR Inten    --     41.4592                 1.7129                25.4685

                     58                     59                     60
                      A                      A                      A
 Frequencies --   1140.5361              1160.2472              1178.9650
 Red. masses --      2.4479                 1.3841                 1.2061
 Frc consts  --      1.8762                 1.0978                 0.9877
 IR Inten    --     27.2725                 1.4567                 3.8291

                     61                     62                     63
                      A                      A                      A
 Frequencies --   1183.1247              1183.8729              1203.1400
 Red. masses --      1.0894                 2.0206                 1.8907
 Frc consts  --      0.8984                 1.6686                 1.6125
 IR Inten    --      0.5144                30.7983                 5.4438

                     64                     65                     66
                      A                      A                      A
 Frequencies --   1212.7860              1226.9224              1262.9871
 Red. masses --      1.2296                 1.5684                 2.0367
 Frc consts  --      1.0656                 1.3911                 1.9142
 IR Inten    --      2.5756                 9.0081                19.1736

                     67                     68                     69
                      A                      A                      A
 Frequencies --   1283.3248              1290.0966              1298.4850
 Red. masses --      1.3105                 1.2688                 1.4313
 Frc consts  --      1.2716                 1.2442                 1.4219
 IR Inten    --     17.4369                 7.1286                36.2900

                     70                     71                     72
                      A                      A                      A
 Frequencies --   1310.7255              1315.9895              1333.4902
 Red. masses --      1.2336                 1.2201                 1.3194
 Frc consts  --      1.2487                 1.2450                 1.3823
 IR Inten    --      8.6635                 4.3332                 4.5089

                     73                     74                     75
                      A                      A                      A
 Frequencies --   1341.1122              1355.1140              1364.4510
 Red. masses --      2.3734                 1.9173                 1.5041
 Frc consts  --      2.5151                 2.0744                 1.6499
 IR Inten    --      1.4486                 4.5519                 1.9687

                     76                     77                     78
                      A                      A                      A
 Frequencies --   1368.5476              1378.3378              1385.2043
 Red. masses --      1.3266                 1.4295                 1.4273
 Frc consts  --      1.4639                 1.6001                 1.6135
 IR Inten    --      0.3699                 0.8257                 1.7750

                     79                     80                     81
                      A                      A                      A
 Frequencies --   1394.6737              1395.7933              1400.8869
 Red. masses --      1.3861                 1.4371                 1.4672
 Frc consts  --      1.5885                 1.6496                 1.6965
 IR Inten    --      3.7805                 0.5402                 1.2722

                     82                     83                     84
                      A                      A                      A
 Frequencies --   1405.0938              1409.0102              1429.4401
 Red. masses --      1.3432                 1.3637                 1.3818
 Frc consts  --      1.5624                 1.5952                 1.6636
 IR Inten    --      3.7591                15.5338                 9.8825

                     85                     86                     87
                      A                      A                      A
 Frequencies --   1486.5714              1494.6116              1501.2238
 Red. masses --      2.1411                 1.1000                 1.0886
 Frc consts  --      2.7878                 1.4477                 1.4454
 IR Inten    --      9.0621                 1.2218                10.2603

                     88                     89                     90
                      A                      A                      A
 Frequencies --   1502.5758              1507.2987              1512.5127
 Red. masses --      1.1049                 1.0804                 1.0932
 Frc consts  --      1.4698                 1.4463                 1.4735
 IR Inten    --      5.9562                 2.2898                 5.1008

                     91                     92                     93
                      A                      A                      A
 Frequencies --   1515.0793              1517.9935              1522.0862
 Red. masses --      1.1015                 1.0899                 1.0910
 Frc consts  --      1.4897                 1.4797                 1.4892
 IR Inten    --      4.0258                 2.5240                 8.1713

                     94                     95                     96
                      A                      A                      A
 Frequencies --   1526.8717              1536.2654              1540.2843
 Red. masses --      1.1019                 1.1023                 2.0701
 Frc consts  --      1.5135                 1.5328                 2.8936
 IR Inten    --      3.6875                 4.8959                21.5814

                     97                     98                     99
                      A                      A                      A
 Frequencies --   1637.8074              1657.7648              2941.2242
 Red. masses --      5.3149                 5.6713                 1.0733
 Frc consts  --      8.3998                 9.1829                 5.4706
 IR Inten    --      1.8080                 7.7634                45.2255

                    100                    101                    102
                      A                      A                      A
 Frequencies --   2946.2824              3035.9934              3046.3633
 Red. masses --      1.0726                 1.0665                 1.0611
 Frc consts  --      5.4855                 5.7916                 5.8017
 IR Inten    --    226.0507                55.3820                61.1385

                    103                    104                    105
                      A                      A                      A
 Frequencies --   3048.0126              3048.1135              3058.0070
 Red. masses --      1.0613                 1.0621                 1.0648
 Frc consts  --      5.8091                 5.8141                 5.8665
 IR Inten    --     73.7781                19.2798                80.2055

                    106                    107                    108
                      A                      A                      A
 Frequencies --   3066.1207              3077.0620              3081.4547
 Red. masses --      1.0628                 1.0911                 1.0725
 Frc consts  --      5.8866                 6.0869                 6.0000
 IR Inten    --     70.8897                29.2000                62.2206

                    109                    110                    111
                      A                      A                      A
 Frequencies --   3085.5754              3089.4841              3089.9638
 Red. masses --      1.0935                 1.1026                 1.0736
 Frc consts  --      6.1338                 6.2007                 6.0395
 IR Inten    --    112.4399                61.7345                14.3113

                    112                    113                    114
                      A                      A                      A
 Frequencies --   3093.3686              3099.0548              3106.3839
 Red. masses --      1.1050                 1.0979                 1.0981
 Frc consts  --      6.2296                 6.2126                 6.2430
 IR Inten    --    156.5902                28.0991               147.7892

                    115                    116                    117
                      A                      A                      A
 Frequencies --   3127.9879              3130.6645              3142.1438
 Red. masses --      1.0996                 1.0965                 1.0867
 Frc consts  --      6.3389                 6.3320                 6.3216
 IR Inten    --     40.0473                88.2636                67.5427

                    118                    119                    120
                      A                      A                      A
 Frequencies --   3146.2247              3193.8288              3201.7813
 Red. masses --      1.0875                 1.0855                 1.0895
 Frc consts  --      6.3427                 6.5236                 6.5804
 IR Inten    --     86.7805                 1.9578                26.8429

                    121                    122                    123
                      A                      A                      A
 Frequencies --   3216.2816              3226.3430              3237.1338
 Red. masses --      1.0942                 1.0928                 1.0904
 Frc consts  --      6.6688                 6.7019                 6.7324
 IR Inten    --     57.1111                26.1352                27.1576

 - Thermochemistry -
 -------------------
 Temperature   298.150 Kelvin.  Pressure   1.00000 Atm.
 Atom     1 has atomic number  6 and mass  12.00000

 Molecular mass:   243.19870 amu.
 Principal axes and moments of inertia in atomic units:
                           1         2         3
     Eigenvalues --  3540.870234705.479956993.63132
           X            0.99928  -0.03802   0.00051
           Y            0.03802   0.99928  -0.00094
           Z           -0.00048   0.00096   1.00000
 This molecule is an asymmetric top.
 Rotational symmetry number  1.
 Warning -- assumption of classical behavior for rotation
           may cause significant error
 Rotational temperatures (Kelvin)      0.02446     0.01841     0.01238
 Rotational constants (GHZ):           0.50969     0.38354     0.25805
 Zero-point vibrational energy    1029621.8 (Joules/Mol)
                                  246.08553 (Kcal/Mol)
 Warning -- explicit consideration of  24 degrees of freedom as
           vibrations may cause significant error
 Vibrational temperatures:     35.79    79.64    96.06   112.65   150.37
          (Kelvin)            228.60   294.62   299.84   326.49   382.59
                              398.49   417.08   464.99   492.62   528.12
                              583.57   604.47   620.36   660.15   677.89
                              697.32   768.96   787.46   856.13   906.11
                              913.36  1014.19  1029.52  1104.30  1117.09
                             1139.64  1186.74  1206.70  1227.09  1239.92
                             1263.38  1273.45  1303.46  1329.31  1341.46
                             1357.86  1387.43  1408.88  1412.49  1415.20
                             1444.57  1459.93  1487.19  1504.83  1511.38
                             1525.68  1543.46  1568.97  1573.37  1582.57
                             1611.89  1621.69  1640.98  1669.34  1696.27
                             1702.25  1703.33  1731.05  1744.93  1765.27
                             1817.16  1846.42  1856.16  1868.23  1885.84
                             1893.42  1918.59  1929.56  1949.71  1963.14
                             1969.03  1983.12  1993.00  2006.62  2008.24
                             2015.56  2021.62  2027.25  2056.65  2138.84
                             2150.41  2159.93  2161.87  2168.67  2176.17
                             2179.86  2184.05  2189.94  2196.83  2210.34
                             2216.13  2356.44  2385.15  4231.77  4239.04
                             4368.12  4383.04  4385.41  4385.56  4399.79
                             4411.46  4427.21  4433.53  4439.45  4445.08
                             4445.77  4450.67  4458.85  4469.39  4500.48
                             4504.33  4520.84  4526.72  4595.21  4606.65
                             4627.51  4641.99  4657.51

 Zero-point correction=                           0.392162 (Hartree/Particle)
 Thermal correction to Energy=                    0.408095
 Thermal correction to Enthalpy=                  0.409039
 Thermal correction to Gibbs Free Energy=         0.348728
 Sum of electronic and zero-point Energies=           -717.214656
 Sum of electronic and thermal Energies=              -717.198724
 Sum of electronic and thermal Enthalpies=            -717.197779
 Sum of electronic and thermal Free Energies=         -717.258090

                     E (Thermal)             CV                S
                      KCal/Mol        Cal/Mol-Kelvin    Cal/Mol-Kelvin
 Total                  256.084             65.871            126.935
 Electronic               0.000              0.000              0.000
 Translational            0.889              2.981             42.367
 Rotational               0.889              2.981             33.121
 Vibrational            254.306             59.910             51.446
 Vibration     1          0.593              1.985              6.201
 Vibration     2          0.596              1.975              4.616
 Vibration     3          0.598              1.970              4.247
 Vibration     4          0.600              1.964              3.933
 Vibration     5          0.605              1.946              3.368
 Vibration     6          0.621              1.893              2.563
 Vibration     7          0.640              1.833              2.090
 Vibration     8          0.642              1.828              2.058
 Vibration     9          0.651              1.800              1.903
 Vibration    10          0.672              1.736              1.623
 Vibration    11          0.678              1.716              1.552
 Vibration    12          0.686              1.693              1.475
 Vibration    13          0.708              1.629              1.294
 Vibration    14          0.722              1.591              1.201
 Vibration    15          0.740              1.540              1.092
 Vibration    16          0.771              1.458              0.942
 Vibration    17          0.783              1.426              0.892
 Vibration    18          0.792              1.402              0.855
 Vibration    19          0.817              1.341              0.770
 Vibration    20          0.828              1.314              0.734
 Vibration    21          0.841              1.284              0.698
 Vibration    22          0.889              1.174              0.577
 Vibration    23          0.903              1.146              0.550
 Vibration    24          0.953              1.042              0.458

 Optimization completed.
    -- Stationary point found.
 Normal termination of Gaussian 16 at Wed Mar  2 00:21:36 2022.

 ------------------------------------------
 #p b3lyp/6-31G(d) geom=allcheck guess=read
 ------------------------------------------

 Structure from the checkpoint file:  "65.n.pdb.xyz.mst.wat.chk"
 ------------
 65.n.pdb.xyz
 ------------
 Charge =  0 Multiplicity = 1

 SCF Done:  E(RB3LYP) =  -717.605120767     A.U. after   10 cycles
 Normal termination of Gaussian 16 at Wed Mar  2 00:25:13 2022.
 Gaussian 16:  ES64L-G16RevA.03 25-Dec-2016

 ----------------------------------------------------------------------
 #p b3lyp/6-31G(d) scrf=(iefpcm,read,solvent=water) geom=allcheck guess
 =read
 ----------------------------------------------------------------------

 Structure from the checkpoint file:  "65.n.pdb.xyz.mst.wat.chk"
 ------------
 65.n.pdb.xyz
 ------------
 Charge =  0 Multiplicity = 1

                         Standard orientation:
 ---------------------------------------------------------------------
 Center     Atomic      Atomic             Coordinates (Angstroms)
 Number     Number       Type             X           Y           Z
 ---------------------------------------------------------------------
      1          6           0        3.739120   -1.596440   -0.206477
      2          6           0        3.540035   -0.423036    0.756779
      3          6           0        2.392831    0.481308    0.293512
      4          7           0        1.138051   -0.279752    0.190179
      5          6           0        1.312101   -1.313543   -0.844190
      6          6           0        2.405120   -2.309214   -0.445185
      7          6           0       -0.102531    0.549301    0.015177
      8          6           0       -0.320686    1.422097    1.292390
      9          6           0       -1.305989    2.563480    1.019358
     10          6           0       -0.713690    3.580582    0.015234
     11          6           0        0.373183    2.932133   -0.862115
     12          6           0       -0.004174    1.490788   -1.230336
     13          6           0       -1.296374   -0.435441   -0.035000
     14          6           0       -2.307497   -0.422516   -1.002470
     15          6           0       -3.379216   -1.322189   -0.946622
     16          6           0       -3.463359   -2.259550    0.078953
     17          6           0       -2.460166   -2.290947    1.052676
     18          6           0       -1.400258   -1.390904    0.993604
     19          1           0        4.119382   -1.214759   -1.163848
     20          1           0        4.492028   -2.293595    0.177600
     21          1           0        4.456081    0.172767    0.839073
     22          1           0        3.306096   -0.800331    1.759977
     23          1           0        2.273294    1.300783    1.002248
     24          1           0        2.663035    0.933289   -0.678825
     25          1           0        1.578860   -0.861665   -1.818084
     26          1           0        0.367196   -1.839130   -0.982357
     27          1           0        2.504735   -3.067583   -1.229930
     28          1           0        2.092182   -2.828026    0.469417
     29          1           0       -0.671378    0.782735    2.105774
     30          1           0        0.626201    1.857214    1.621000
     31          1           0       -1.569437    3.061610    1.957755
     32          1           0       -2.237692    2.143410    0.623649
     33          1           0       -0.286445    4.436154    0.550180
     34          1           0       -1.513582    3.979705   -0.618708
     35          1           0        0.527298    3.519823   -1.773532
     36          1           0        1.328821    2.935338   -0.327674
     37          1           0        0.722807    1.075091   -1.935844
     38          1           0       -0.952311    1.531504   -1.769249
     39          1           0       -2.279606    0.283677   -1.822453
     40          1           0       -4.146038   -1.282479   -1.714037
     41          1           0       -4.294055   -2.956742    0.121527
     42          1           0       -2.505270   -3.016384    1.859121
     43          1           0       -0.619269   -1.429592    1.744233
 ---------------------------------------------------------------------

 SCF Done:  E(RB3LYP) =  -717.605396700     A.U. after   10 cycles

 The electronic state is 1-A.
 Alpha  occ. eigenvalues --  -14.31654 -10.22226 -10.19636 -10.19348 -10.19330
 Alpha  occ. eigenvalues --  -10.18767 -10.18724 -10.18658 -10.18590 -10.18230
 Alpha  occ. eigenvalues --  -10.17298 -10.17280 -10.17277 -10.17261 -10.17234
 Alpha  occ. eigenvalues --  -10.17216 -10.17214 -10.17113  -0.91752  -0.85164
 Alpha  occ. eigenvalues --   -0.82052  -0.78329  -0.75376  -0.74247  -0.74130
 Alpha  occ. eigenvalues --   -0.73015  -0.70588  -0.64015  -0.62574  -0.61205
 Alpha  occ. eigenvalues --   -0.60176  -0.58960  -0.57006  -0.54409  -0.52252
 Alpha  occ. eigenvalues --   -0.51402  -0.49251  -0.47218  -0.46269  -0.45049
 Alpha  occ. eigenvalues --   -0.44448  -0.44079  -0.43224  -0.42756  -0.41741
 Alpha  occ. eigenvalues --   -0.41120  -0.40140  -0.38889  -0.38165  -0.37682
 Alpha  occ. eigenvalues --   -0.36830  -0.36725  -0.36360  -0.35292  -0.34696
 Alpha  occ. eigenvalues --   -0.34023  -0.33499  -0.33329  -0.32016  -0.31390
 Alpha  occ. eigenvalues --   -0.30672  -0.30058  -0.29665  -0.28977  -0.24944
 Alpha  occ. eigenvalues --   -0.24118  -0.20437
 Alpha virt. eigenvalues --   -0.00420   0.00141   0.08433   0.09931   0.10079
 Alpha virt. eigenvalues --    0.11290   0.11446   0.13179   0.13746   0.14384
 Alpha virt. eigenvalues --    0.14680   0.15035   0.15663   0.15734   0.16648

 Mulliken charges:
               1
     1  C   -0.265658
     2  C   -0.257466
     3  C   -0.136411
     4  N   -0.437692
     5  C   -0.129903
     6  C   -0.259853
     7  C    0.203124
     8  C   -0.294656
     9  C   -0.274645
    10  C   -0.262643
    11  C   -0.275013
    12  C   -0.316688
    13  C    0.097339
    14  C   -0.207528
    15  C   -0.157050
    16  C   -0.150811
    17  C   -0.155338
    18  C   -0.168351
    19  H    0.130340
    20  H    0.133984
    21  H    0.133212
    22  H    0.133343
    23  H    0.148420
    24  H    0.115022
    25  H    0.111949
    26  H    0.148925
    27  H    0.132377
    28  H    0.134037
    29  H    0.141705
    30  H    0.142283
    31  H    0.137288
    32  H    0.136380
    33  H    0.134383
    34  H    0.134180
    35  H    0.133852
    36  H    0.141902
    37  H    0.147587
    38  H    0.147080
    39  H    0.146737
    40  H    0.145843
    41  H    0.145577
    42  H    0.145120
    43  H    0.147719
 Sum of Mulliken charges =  -0.00000

 Dipole moment (field-independent basis, Debye):
    X=              0.4369    Y=              0.6358    Z=             -0.5246  Tot=              0.9329
 Quadrupole moment (field-independent basis, Debye-Ang):
   XX=           -107.4502   YY=           -108.5656   ZZ=           -108.6779
   XY=              2.4686   XZ=              1.9331   YZ=             -1.3743

 Normal termination of Gaussian 16 at Wed Mar  2 00:29:17 2022.
