 Gaussian 16, Revision A.03,

 ----------------------------------------------------------------------
 #p b3lyp/6-31G(d) opt=(MaxStep=10,MaxCycles=1000) freq scf=(MaxCycle=2
 000,NoVarAcc,NoIncFock) scrf=(iefpcm,read,solvent=water)
 ----------------------------------------------------------------------

 ------------
 66.n.pdb.xyz
 ------------
 Symbolic Z-matrix:
 Charge =  0 Multiplicity = 1

 SCF Done:  E(RB3LYP) =  -2690.25320506     A.U. after   11 cycles
 SCF Done:  E(RB3LYP) =  -2690.25443431     A.U. after    9 cycles
 SCF Done:  E(RB3LYP) =  -2690.25460435     A.U. after    9 cycles
 SCF Done:  E(RB3LYP) =  -2690.25465205     A.U. after    8 cycles
 SCF Done:  E(RB3LYP) =  -2690.25465434     A.U. after    7 cycles
 Optimization completed.
    -- Stationary point found.
 Normal termination of Gaussian 16 at Wed Mar  2 00:04:18 2022.

 --------------------------------------------------------------------
 #P Geom=AllCheck Guess=TCheck SCRF=Check GenChk RB3LYP/6-31G(d) Freq
 --------------------------------------------------------------------

 Structure from the checkpoint file:  "66.n.pdb.xyz.mst.wat.chk"
 ------------
 66.n.pdb.xyz
 ------------
 Charge =  0 Multiplicity = 1

 SCF Done:  E(RB3LYP) =  -2690.25465434     A.U. after    1 cycles

  Exact polarizability:  80.411  -0.014  56.252   2.821  -0.002  52.413
 Approx polarizability:  92.083  -0.012  60.237   4.942  -0.002  60.044

                      1                      2                      3
                      A                      A                      A
 Frequencies --    240.5027               262.9006               281.4681
 Red. masses --      1.0473                 1.4140                 2.7742
 Frc consts  --      0.0357                 0.0576                 0.1295
 IR Inten    --      0.1629                 3.2478                 1.4041

                      4                      5                      6
                      A                      A                      A
 Frequencies --    299.4736               405.5476               522.3023
 Red. masses --      1.8218                 2.2799                 3.1064
 Frc consts  --      0.0963                 0.2209                 0.4993
 IR Inten    --      5.7042                 4.6454                46.5912

                      7                      8                      9
                      A                      A                      A
 Frequencies --    892.4490               952.6548               956.8093
 Red. masses --      2.5889                 1.1313                 1.4352
 Frc consts  --      1.2149                 0.6049                 0.7741
 IR Inten    --     19.4932                 2.8135                 0.2306

                     10                     11                     12
                      A                      A                      A
 Frequencies --   1060.2687              1156.8845              1188.1370
 Red. masses --      1.2647                 2.1705                 1.7762
 Frc consts  --      0.8377                 1.7115                 1.4773
 IR Inten    --     19.8515                 3.4353                73.0359

                     13                     14                     15
                      A                      A                      A
 Frequencies --   1257.6421              1377.5759              1426.2172
 Red. masses --      1.2869                 1.3405                 1.3188
 Frc consts  --      1.1992                 1.4988                 1.5806
 IR Inten    --     72.7140                 2.0172                12.3173

                     16                     17                     18
                      A                      A                      A
 Frequencies --   1440.8951              1497.0180              1502.7445
 Red. masses --      1.2323                 1.0495                 1.0460
 Frc consts  --      1.5074                 1.3858                 1.3918
 IR Inten    --      5.0674                 4.2166                 0.4826

                     19                     20                     21
                      A                      A                      A
 Frequencies --   1508.1900              1524.1855              3052.9052
 Red. masses --      1.0463                 1.0459                 1.0427
 Frc consts  --      1.4022                 1.4316                 5.7260
 IR Inten    --     12.0742                 8.0934                21.7820

                     22                     23                     24
                      A                      A                      A
 Frequencies --   3064.0220              3125.4883              3130.4033
 Red. masses --      1.0392                 1.0936                 1.0977
 Frc consts  --      5.7483                 6.2942                 6.3378
 IR Inten    --     32.4680                16.6900                20.6915

                     25                     26                     27
                      A                      A                      A
 Frequencies --   3149.7966              3158.6358              3169.0610
 Red. masses --      1.0942                 1.1037                 1.0967
 Frc consts  --      6.3962                 6.4876                 6.4896
 IR Inten    --     13.2510                21.7268                52.3613

 - Thermochemistry -
 -------------------
 Temperature   298.150 Kelvin.  Pressure   1.00000 Atm.
 Atom     1 has atomic number  6 and mass  12.00000

 Molecular mass:   121.97311 amu.
 Principal axes and moments of inertia in atomic units:
                           1         2         3
     Eigenvalues --   226.52898 634.73834 803.97314
           X            0.99998  -0.00003  -0.00643
           Y            0.00003   1.00000   0.00001
           Z            0.00643  -0.00001   0.99998
 This molecule is an asymmetric top.
 Rotational symmetry number  1.
 Rotational temperatures (Kelvin)      0.38235     0.13646     0.10773
 Rotational constants (GHZ):           7.96693     2.84328     2.24478
 Zero-point vibrational energy     248848.2 (Joules/Mol)
                                   59.47616 (Kcal/Mol)
 Warning -- explicit consideration of   6 degrees of freedom as
           vibrations may cause significant error
 Vibrational temperatures:    346.03   378.26   404.97   430.88   583.49
          (Kelvin)            751.48  1284.04  1370.66  1376.64  1525.49
                             1664.50  1709.46  1809.47  1982.02  2052.01
                             2073.13  2153.87  2162.11  2169.95  2192.96
                             4392.45  4408.44  4496.88  4503.95  4531.85
                             4544.57  4559.57

 Zero-point correction=                           0.094781 (Hartree/Particle)
 Thermal correction to Energy=                    0.100223
 Thermal correction to Enthalpy=                  0.101167
 Thermal correction to Gibbs Free Energy=         0.065457
 Sum of electronic and zero-point Energies=          -2690.159873
 Sum of electronic and thermal Energies=             -2690.154432
 Sum of electronic and thermal Enthalpies=           -2690.153488
 Sum of electronic and thermal Free Energies=        -2690.189197

                     E (Thermal)             CV                S
                      KCal/Mol        Cal/Mol-Kelvin    Cal/Mol-Kelvin
 Total                   62.891             18.420             75.157
 Electronic               0.000              0.000              0.000
 Translational            0.889              2.981             40.310
 Rotational               0.889              2.981             26.250
 Vibrational             61.113             12.459              8.597
 Vibration     1          0.658              1.778              1.799
 Vibration     2          0.670              1.741              1.642
 Vibration     3          0.681              1.708              1.525
 Vibration     4          0.692              1.675              1.420
 Vibration     5          0.771              1.458              0.942
 Vibration     6          0.877              1.201              0.605

 Optimization completed.
    -- Stationary point found.
 Normal termination of Gaussian 16 at Wed Mar  2 00:05:38 2022.

 ------------------------------------------
 #p b3lyp/6-31G(d) geom=allcheck guess=read
 ------------------------------------------

 Structure from the checkpoint file:  "66.n.pdb.xyz.mst.wat.chk"
 ------------
 66.n.pdb.xyz
 ------------
 Charge =  0 Multiplicity = 1

 SCF Done:  E(RB3LYP) =  -2690.25279352     A.U. after   10 cycles

 1\1\GINC-PIRINEUS4\SP\RB3LYP\6-31G(d)\C3H7Br1\UBATOR01\02-Mar-2022\0\\
 #p b3lyp/6-31G(d) geom=allcheck guess=read\\66.n.pdb.xyz\\0,1\C,0,-1.1
 561876948,-0.5901238895,0.1650190094\C,0,-0.1402992897,0.4432038444,-0
 .281304541\C,0,1.305949406,0.0404022403,-0.0673037772\Br,0,-0.48090768
 3,2.150861926,0.7439408543\H,0,-1.0236495092,-0.8413198708,1.220741186
 6\H,0,-1.0168293225,-1.50300187,-0.4255057877\H,0,-2.178037586,-0.2366
 046348,0.0143084495\H,0,-0.3174097338,0.7552189243,-1.3094990977\H,0,1
 .4965042084,-0.1941958931,0.9833389171\H,0,1.5191245954,-0.8560602289,

 Normal termination of Gaussian 16 at Wed Mar  2 00:05:47 2022.
 Gaussian 16:  ES64L-G16RevA.03 25-Dec-2016

 ----------------------------------------------------------------------
 #p b3lyp/6-31G(d) scrf=(iefpcm,read,solvent=water) geom=allcheck guess
 =read
 ----------------------------------------------------------------------

 Structure from the checkpoint file:  "66.n.pdb.xyz.mst.wat.chk"
 ------------
 66.n.pdb.xyz
 ------------
 Charge =  0 Multiplicity = 1

                         Standard orientation:
 ---------------------------------------------------------------------
 Center     Atomic      Atomic             Coordinates (Angstroms)
 Number     Number       Type             X           Y           Z
 ---------------------------------------------------------------------
      1          6           0        1.560530    1.276186   -0.129569
      2          6           0        0.950734    0.000166    0.417168
      3          6           0        1.560855   -1.276000   -0.129488
      4         35           0       -1.021018   -0.000064   -0.024909
      5          1           0        1.496634    1.306442   -1.220540
      6          1           0        2.618723    1.313664    0.153819
      7          1           0        1.065318    2.160875    0.275349
      8          1           0        0.940395    0.000381    1.506112
      9          1           0        1.495230   -1.306278   -1.220347
     10          1           0        2.621315   -1.314409    0.153050
     11          1           0        1.065289   -2.160538    0.275725
 ---------------------------------------------------------------------

 SCF Done:  E(RB3LYP) =  -2690.25444177     A.U. after   10 cycles

 The electronic state is 1-A.
 Alpha  occ. eigenvalues -- -482.89014 -61.85259 -56.37298 -56.36956 -56.36954
 Alpha  occ. eigenvalues --  -10.24740 -10.18430 -10.18407  -8.56385  -6.51665
 Alpha  occ. eigenvalues --   -6.50545  -6.50543  -2.63247  -2.62934  -2.62933
 Alpha  occ. eigenvalues --   -2.62039  -2.62039  -0.82246  -0.72577  -0.69657
 Alpha  occ. eigenvalues --   -0.58014  -0.46750  -0.44479  -0.41989  -0.39407
 Alpha  occ. eigenvalues --   -0.36112  -0.35979  -0.33071  -0.27175  -0.27124
 Alpha virt. eigenvalues --   -0.00103   0.09625   0.13847   0.15146   0.15666
 Alpha virt. eigenvalues --    0.17362   0.18594   0.18931   0.20898   0.24269
 Alpha virt. eigenvalues --    0.28797   0.42226   0.42791   0.45710   0.46404

 Mulliken charges:
               1
     1  C   -0.439713
     2  C   -0.106097
     3  C   -0.439706
     4  Br  -0.222036
     5  H    0.166537
     6  H    0.168210
     7  H    0.169620
     8  H    0.199064
     9  H    0.166638
    10  H    0.167832
    11  H    0.169651
 Sum of Mulliken charges =  -0.00000

 Dipole moment (field-independent basis, Debye):
    X=              3.0297    Y=              0.0008    Z=              0.5501  Tot=              3.0793
 Quadrupole moment (field-independent basis, Debye-Ang):
   XX=            -36.4403   YY=            -37.9276   ZZ=            -37.9546
   XY=              0.0014   XZ=              0.8376   YZ=              0.0014

 1\1\GINC-PIRINEUS4\SP\RB3LYP\6-31G(d)\C3H7Br1\UBATOR01\02-Mar-2022\0\\
 #p b3lyp/6-31G(d) scrf=(iefpcm,read,solvent=water) geom=allcheck guess
 =read\\66.n.pdb.xyz\\0,1\C,0,-1.1561876948,-0.5901238895,0.1650190094\
 C,0,-0.1402992897,0.4432038444,-0.281304541\C,0,1.305949406,0.04040224
 03,-0.0673037772\Br,0,-0.480907683,2.150861926,0.7439408543\H,0,-1.023
 6495092,-0.8413198708,1.2207411866\H,0,-1.0168293225,-1.50300187,-0.42
 55057877\H,0,-2.178037586,-0.2366046348,0.0143084495\H,0,-0.3174097338
 ,0.7552189243,-1.3094990977\H,0,1.4965042084,-0.1941958931,0.983338917

 Normal termination of Gaussian 16 at Wed Mar  2 00:06:02 2022.
