 Gaussian 16, Revision A.03,

 ----------------------------------------------------------------------
 #p b3lyp/6-31G(d) opt=(MaxStep=10,MaxCycles=1000) freq scf=(MaxCycle=2
 000,NoVarAcc,NoIncFock) scrf=(iefpcm,read,solvent=water)
 ----------------------------------------------------------------------

 ------------
 67.n.pdb.xyz
 ------------
 Symbolic Z-matrix:
 Charge =  0 Multiplicity = 1

 SCF Done:  E(RB3LYP) =  -978.890761351     A.U. after   13 cycles
 SCF Done:  E(RB3LYP) =  -978.896474976     A.U. after   10 cycles
 SCF Done:  E(RB3LYP) =  -978.899418290     A.U. after   10 cycles
 SCF Done:  E(RB3LYP) =  -978.900722835     A.U. after   10 cycles
 SCF Done:  E(RB3LYP) =  -978.901247545     A.U. after   10 cycles
 SCF Done:  E(RB3LYP) =  -978.901431215     A.U. after    9 cycles
 SCF Done:  E(RB3LYP) =  -978.901603518     A.U. after    9 cycles
 SCF Done:  E(RB3LYP) =  -978.901610569     A.U. after    8 cycles
 SCF Done:  E(RB3LYP) =  -978.901620375     A.U. after    8 cycles
 SCF Done:  E(RB3LYP) =  -978.901626842     A.U. after    7 cycles
 SCF Done:  E(RB3LYP) =  -978.901625581     A.U. after    7 cycles
 SCF Done:  E(RB3LYP) =  -978.901627818     A.U. after    7 cycles
 SCF Done:  E(RB3LYP) =  -978.901626007     A.U. after    6 cycles
 SCF Done:  E(RB3LYP) =  -978.901627295     A.U. after    6 cycles
 SCF Done:  E(RB3LYP) =  -978.901627719     A.U. after    7 cycles
 SCF Done:  E(RB3LYP) =  -978.901627383     A.U. after    7 cycles
 Optimization completed.
    -- Stationary point found.
 Normal termination of Gaussian 16 at Wed Mar  2 05:00:33 2022.

 --------------------------------------------------------------------
 #P Geom=AllCheck Guess=TCheck SCRF=Check GenChk RB3LYP/6-31G(d) Freq
 --------------------------------------------------------------------

 Structure from the checkpoint file:  "67.n.pdb.xyz.mst.wat.chk"
 ------------
 67.n.pdb.xyz
 ------------
 Charge =  0 Multiplicity = 1

 SCF Done:  E(RB3LYP) =  -978.901627383     A.U. after    1 cycles

  Exact polarizability: 314.408   1.659 300.927 -10.483  17.153 189.476
 Approx polarizability: 318.334  -7.329 337.445 -14.080  26.638 211.940

                      1                      2                      3
                      A                      A                      A
 Frequencies --     54.8797                72.2910               108.2225
 Red. masses --      3.6231                 3.3655                 3.8601
 Frc consts  --      0.0064                 0.0104                 0.0266
 IR Inten    --      2.4540                 3.6890                 0.8879

                      4                      5                      6
                      A                      A                      A
 Frequencies --    123.9319               135.1010               160.1694
 Red. masses --      4.1887                 4.7976                 4.1092
 Frc consts  --      0.0379                 0.0516                 0.0621
 IR Inten    --      5.6174                 0.3831                 5.9741

                      7                      8                      9
                      A                      A                      A
 Frequencies --    181.4616               214.0817               219.1880
 Red. masses --      3.0062                 3.0925                 1.1536
 Frc consts  --      0.0583                 0.0835                 0.0327
 IR Inten    --      3.6125                20.9291               195.4415

                     10                     11                     12
                      A                      A                      A
 Frequencies --    227.2083               240.4155               246.1775
 Red. masses --      1.4670                 1.7476                 1.5448
 Frc consts  --      0.0446                 0.0595                 0.0552
 IR Inten    --      0.6724                 1.1768                 4.3135

                     13                     14                     15
                      A                      A                      A
 Frequencies --    260.1204               278.5836               286.6968
 Red. masses --      2.9725                 2.7174                 3.3973
 Frc consts  --      0.1185                 0.1243                 0.1645
 IR Inten    --      5.1808                 0.7170                 3.4632

                     16                     17                     18
                      A                      A                      A
 Frequencies --    307.7748               331.9874               350.4998
 Red. masses --      3.1079                 2.8539                 3.0973
 Frc consts  --      0.1735                 0.1853                 0.2242
 IR Inten    --      3.5138                 2.0944                 1.4641

                     19                     20                     21
                      A                      A                      A
 Frequencies --    367.4559               383.3025               394.5510
 Red. masses --      3.9608                 4.4751                 3.6147
 Frc consts  --      0.3151                 0.3874                 0.3315
 IR Inten    --      4.9340                 1.0939                 1.0804

                     22                     23                     24
                      A                      A                      A
 Frequencies --    414.2208               437.1064               481.1120
 Red. masses --      3.4186                 5.6952                 4.3916
 Frc consts  --      0.3456                 0.6411                 0.5989
 IR Inten    --      3.1238                 2.1268                10.0451

                     25                     26                     27
                      A                      A                      A
 Frequencies --    501.6049               533.4439               551.2291
 Red. masses --      3.6521                 4.1403                 3.3372
 Frc consts  --      0.5414                 0.6942                 0.5974
 IR Inten    --     11.8985                 3.8407                 2.1438

                     28                     29                     30
                      A                      A                      A
 Frequencies --    570.2478               575.7183               612.1433
 Red. masses --      4.3010                 4.1977                 4.5667
 Frc consts  --      0.8240                 0.8197                 1.0082
 IR Inten    --      3.3853                 5.8914                 5.2537

                     31                     32                     33
                      A                      A                      A
 Frequencies --    625.0198               645.6688               661.4213
 Red. masses --      5.9922                 4.7687                 5.0126
 Frc consts  --      1.3792                 1.1713                 1.2920
 IR Inten    --      2.7481                14.8438                 3.7215

                     34                     35                     36
                      A                      A                      A
 Frequencies --    695.6144               708.3863               729.5885
 Red. masses --      2.2632                 5.0231                 3.6774
 Frc consts  --      0.6452                 1.4851                 1.1533
 IR Inten    --     37.8368                 5.9452                21.5844

                     37                     38                     39
                      A                      A                      A
 Frequencies --    750.0588               771.6144               787.7234
 Red. masses --      6.7639                 4.3514                 3.5333
 Frc consts  --      2.2420                 1.5264                 1.2917
 IR Inten    --     10.2626                36.7023                43.2918

                     40                     41                     42
                      A                      A                      A
 Frequencies --    804.6055               823.8445               863.6734
 Red. masses --      1.4559                 2.0601                 3.0606
 Frc consts  --      0.5553                 0.8238                 1.3451
 IR Inten    --     33.3886                14.5943                37.0003

                     43                     44                     45
                      A                      A                      A
 Frequencies --    891.0969               915.4796               920.8986
 Red. masses --      3.4041                 2.7573                 2.8896
 Frc consts  --      1.5926                 1.3616                 1.4438
 IR Inten    --     52.1772                55.1577                20.1867

                     46                     47                     48
                      A                      A                      A
 Frequencies --    927.3394               941.5851               961.1460
 Red. masses --      1.5473                 4.6539                 2.2763
 Frc consts  --      0.7840                 2.4310                 1.2390
 IR Inten    --      7.1483               104.9191                 5.7673

                     49                     50                     51
                      A                      A                      A
 Frequencies --    982.6865               997.0903              1002.3615
 Red. masses --      2.0978                 2.1666                 1.7020
 Frc consts  --      1.1936                 1.2691                 1.0076
 IR Inten    --     41.3358                62.6384                17.9736

                     52                     53                     54
                      A                      A                      A
 Frequencies --   1022.1717              1033.7157              1057.2809
 Red. masses --      2.9437                 3.0790                 2.6447
 Frc consts  --      1.8122                 1.9385                 1.7418
 IR Inten    --      6.4515                20.6041                24.0494

                     55                     56                     57
                      A                      A                      A
 Frequencies --   1067.8607              1081.9250              1098.8102
 Red. masses --      2.7012                 2.5110                 2.3170
 Frc consts  --      1.8148                 1.7318                 1.6482
 IR Inten    --     23.5693               129.3533                12.8502

                     58                     59                     60
                      A                      A                      A
 Frequencies --   1121.4824              1131.4688              1148.9758
 Red. masses --      2.9168                 3.2875                 1.7067
 Frc consts  --      2.1614                 2.4797                 1.3274
 IR Inten    --    132.8103               140.9232                17.8828

                     61                     62                     63
                      A                      A                      A
 Frequencies --   1166.1257              1179.7649              1186.1060
 Red. masses --      1.7088                 2.2367                 1.2740
 Frc consts  --      1.3691                 1.8342                 1.0560
 IR Inten    --     18.7295                30.7487                 5.2567

                     64                     65                     66
                      A                      A                      A
 Frequencies --   1187.7387              1203.5613              1207.9777
 Red. masses --      1.7425                 1.2094                 1.8537
 Frc consts  --      1.4483                 1.0322                 1.5937
 IR Inten    --     42.4959                28.9370               108.5287

                     67                     68                     69
                      A                      A                      A
 Frequencies --   1219.0687              1223.6399              1235.3272
 Red. masses --      1.5168                 1.4559                 1.7189
 Frc consts  --      1.3281                 1.2843                 1.5455
 IR Inten    --     20.2475                33.7208                31.0525

                     70                     71                     72
                      A                      A                      A
 Frequencies --   1246.6745              1247.7966              1258.8217
 Red. masses --      1.4434                 1.6906                 1.7222
 Frc consts  --      1.3218                 1.5509                 1.6079
 IR Inten    --     10.2690                27.2187               133.9862

                     73                     74                     75
                      A                      A                      A
 Frequencies --   1288.4007              1302.3108              1316.4068
 Red. masses --      1.6095                 1.7905                 1.9471
 Frc consts  --      1.5742                 1.7892                 1.9880
 IR Inten    --     12.5140               142.3348               125.7560

                     76                     77                     78
                      A                      A                      A
 Frequencies --   1327.6166              1338.8844              1344.0902
 Red. masses --      1.7849                 1.7081                 1.6347
 Frc consts  --      1.8536                 1.8040                 1.7400
 IR Inten    --     47.7860                48.2144                20.3161

                     79                     80                     81
                      A                      A                      A
 Frequencies --   1351.8474              1370.7902              1376.0244
 Red. masses --      1.5185                 1.5044                 2.0250
 Frc consts  --      1.6350                 1.6656                 2.2591
 IR Inten    --     36.1007                 5.8069                25.9225

                     82                     83                     84
                      A                      A                      A
 Frequencies --   1380.0285              1395.1441              1405.8435
 Red. masses --      1.3938                 1.6719                 1.5182
 Frc consts  --      1.5639                 1.9174                 1.7679
 IR Inten    --     24.7123                11.8711                 2.3227

                     85                     86                     87
                      A                      A                      A
 Frequencies --   1409.7144              1422.0683              1433.4933
 Red. masses --      1.7748                 1.4342                 1.4126
 Frc consts  --      2.0781                 1.7088                 1.7103
 IR Inten    --      6.6480                64.5458                16.3539

                     88                     89                     90
                      A                      A                      A
 Frequencies --   1468.6510              1471.5276              1475.2959
 Red. masses --      1.7731                 1.2286                 2.5629
 Frc consts  --      2.2533                 1.5674                 3.2866
 IR Inten    --      8.9874                 1.8601                28.4798

                     91                     92                     93
                      A                      A                      A
 Frequencies --   1486.1910              1503.3354              1504.2526
 Red. masses --      1.3029                 1.2238                 1.0597
 Frc consts  --      1.6955                 1.6295                 1.4128
 IR Inten    --     25.8914                25.4785                19.5639

                     94                     95                     96
                      A                      A                      A
 Frequencies --   1515.0445              1515.2293              1521.3501
 Red. masses --      1.0489                 1.0796                 1.0564
 Frc consts  --      1.4186                 1.4604                 1.4405
 IR Inten    --      9.1544                 9.4443                 5.6655

                     97                     98                     99
                      A                      A                      A
 Frequencies --   1531.2559              1536.2866              1550.9530
 Red. masses --      1.1373                 1.0941                 2.2522
 Frc consts  --      1.5712                 1.5214                 3.1920
 IR Inten    --    102.6428                 5.4671                98.2562

                    100                    101                    102
                      A                      A                      A
 Frequencies --   1655.4345              1663.9728              1678.4180
 Red. masses --      9.1990                 6.7242                 7.8077
 Frc consts  --     14.8531                10.9694                12.9591
 IR Inten    --     32.4274                23.3001                49.9439

                    103                    104                    105
                      A                      A                      A
 Frequencies --   2947.4838              2965.2435              3010.4084
 Red. masses --      1.0612                 1.0721                 1.0825
 Frc consts  --      5.4317                 5.5540                 5.7802
 IR Inten    --    153.0959               198.5043                30.9812

                    106                    107                    108
                      A                      A                      A
 Frequencies --   3015.4858              3016.9162              3032.1132
 Red. masses --      1.0834                 1.0825                 1.0847
 Frc consts  --      5.8046                 5.8051                 5.8755
 IR Inten    --     34.1944                64.4432               157.5509

                    109                    110                    111
                      A                      A                      A
 Frequencies --   3038.3684              3059.2356              3074.7620
 Red. masses --      1.0701                 1.0329                 1.0831
 Frc consts  --      5.8205                 5.6957                 6.0333
 IR Inten    --    122.5490                82.2242                34.2896

                    112                    113                    114
                      A                      A                      A
 Frequencies --   3081.0532              3090.4608              3092.2641
 Red. masses --      1.0704                 1.0729                 1.0943
 Frc consts  --      5.9866                 6.0375                 6.1652
 IR Inten    --     70.7489                90.0140                56.4642

                    115                    116                    117
                      A                      A                      A
 Frequencies --   3122.5454              3124.9045              3159.2175
 Red. masses --      1.1071                 1.1042                 1.0976
 Frc consts  --      6.3602                 6.3530                 6.4543
 IR Inten    --     57.4185                55.8767                 8.3363

                    118                    119                    120
                      A                      A                      A
 Frequencies --   3164.4633              3184.3845              3185.8270
 Red. masses --      1.0850                 1.0955                 1.1020
 Frc consts  --      6.4015                 6.5452                 6.5900
 IR Inten    --     14.4598                71.9584                35.7574

                    121                    122                    123
                      A                      A                      A
 Frequencies --   3197.1504              3237.1662              3716.7164
 Red. masses --      1.0893                 1.0902                 1.0666
 Frc consts  --      6.5605                 6.7310                 8.6814
 IR Inten    --     30.0666                17.4868               124.1331

 - Thermochemistry -
 -------------------
 Temperature   298.150 Kelvin.  Pressure   1.00000 Atm.
 Atom     1 has atomic number  6 and mass  12.00000

 Molecular mass:   299.15214 amu.
 Principal axes and moments of inertia in atomic units:
                           1         2         3
     Eigenvalues --  3978.370036889.329539532.79976
           X            0.99999  -0.00418   0.00336
           Y            0.00419   0.99998  -0.00374
           Z           -0.00334   0.00375   0.99999
 This molecule is an asymmetric top.
 Rotational symmetry number  1.
 Warning -- assumption of classical behavior for rotation
           may cause significant error
 Rotational temperatures (Kelvin)      0.02177     0.01257     0.00909
 Rotational constants (GHZ):           0.45364     0.26196     0.18932
 Zero-point vibrational energy     959465.8 (Joules/Mol)
                                  229.31783 (Kcal/Mol)
 Warning -- explicit consideration of  30 degrees of freedom as
           vibrations may cause significant error
 Vibrational temperatures:     78.96   104.01   155.71   178.31   194.38
          (Kelvin)            230.45   261.08   308.02   315.36   326.90
                              345.90   354.19   374.26   400.82   412.49
                              442.82   477.66   504.29   528.69   551.49
                              567.67   595.97   628.90   692.21   721.70
                              767.51   793.10   820.46   828.33   880.74
                              899.26   928.97   951.64  1000.83  1019.21
                             1049.72  1079.17  1110.18  1133.36  1157.65
                             1185.33  1242.63  1282.09  1317.17  1324.97
                             1334.23  1354.73  1382.87  1413.87  1434.59
                             1442.17  1470.68  1487.29  1521.19  1536.41
                             1556.65  1580.94  1613.56  1627.93  1653.12
                             1677.79  1697.42  1706.54  1708.89  1731.66
                             1738.01  1753.97  1760.54  1777.36  1793.69
                             1795.30  1811.16  1853.72  1873.73  1894.02
                             1910.14  1926.36  1933.85  1945.01  1972.26
                             1979.79  1985.55  2007.30  2022.70  2028.26
                             2046.04  2062.48  2113.06  2117.20  2122.62
                             2138.30  2162.96  2164.28  2179.81  2180.08
                             2188.88  2203.14  2210.37  2231.48  2381.80
                             2394.09  2414.87  4240.77  4266.32  4331.31
                             4338.61  4340.67  4362.53  4371.53  4401.56
                             4423.90  4432.95  4446.48  4449.08  4492.65
                             4496.04  4545.41  4552.96  4581.62  4583.69
                             4599.99  4657.56  5347.53

 Zero-point correction=                           0.365441 (Hartree/Particle)
 Thermal correction to Energy=                    0.383430
 Thermal correction to Enthalpy=                  0.384375
 Thermal correction to Gibbs Free Energy=         0.321538
 Sum of electronic and zero-point Energies=           -978.536186
 Sum of electronic and thermal Energies=              -978.518197
 Sum of electronic and thermal Enthalpies=            -978.517253
 Sum of electronic and thermal Free Energies=         -978.580089

                     E (Thermal)             CV                S
                      KCal/Mol        Cal/Mol-Kelvin    Cal/Mol-Kelvin
 Total                  240.606             74.766            132.250
 Electronic               0.000              0.000              0.000
 Translational            0.889              2.981             42.984
 Rotational               0.889              2.981             33.924
 Vibrational            238.829             68.805             55.342
 Vibration     1          0.596              1.976              4.633
 Vibration     2          0.598              1.967              4.090
 Vibration     3          0.606              1.943              3.301
 Vibration     4          0.610              1.929              3.038
 Vibration     5          0.613              1.918              2.872
 Vibration     6          0.622              1.891              2.548
 Vibration     7          0.630              1.865              2.313
 Vibration     8          0.644              1.820              2.009
 Vibration     9          0.647              1.812              1.966
 Vibration    10          0.651              1.800              1.901
 Vibration    11          0.657              1.779              1.800
 Vibration    12          0.661              1.769              1.758
 Vibration    13          0.668              1.746              1.661
 Vibration    14          0.679              1.713              1.542
 Vibration    15          0.684              1.698              1.493
 Vibration    16          0.698              1.659              1.374
 Vibration    17          0.714              1.612              1.250
 Vibration    18          0.727              1.574              1.164
 Vibration    19          0.740              1.539              1.090
 Vibration    20          0.753              1.506              1.026
 Vibration    21          0.762              1.482              0.983
 Vibration    22          0.778              1.439              0.912
 Vibration    23          0.797              1.389              0.836
 Vibration    24          0.837              1.292              0.707
 Vibration    25          0.857              1.246              0.654
 Vibration    26          0.888              1.176              0.580
 Vibration    27          0.907              1.137              0.542
 Vibration    28          0.926              1.096              0.504
 Vibration    29          0.932              1.084              0.493
 Vibration    30          0.971              1.006              0.429

 Optimization completed.
    -- Stationary point found.
 Normal termination of Gaussian 16 at Wed Mar  2 06:36:56 2022.

 ------------------------------------------
 #p b3lyp/6-31G(d) geom=allcheck guess=read
 ------------------------------------------

 Structure from the checkpoint file:  "67.n.pdb.xyz.mst.wat.chk"
 ------------
 67.n.pdb.xyz
 ------------
 Charge =  0 Multiplicity = 1

 SCF Done:  E(RB3LYP) =  -978.883647101     A.U. after   11 cycles
 Normal termination of Gaussian 16 at Wed Mar  2 06:42:51 2022.
 Gaussian 16:  ES64L-G16RevA.03 25-Dec-2016

 ----------------------------------------------------------------------
 #p b3lyp/6-31G(d) scrf=(iefpcm,read,solvent=water) geom=allcheck guess
 =read
 ----------------------------------------------------------------------

 Structure from the checkpoint file:  "67.n.pdb.xyz.mst.wat.chk"
 ------------
 67.n.pdb.xyz
 ------------
 Charge =  0 Multiplicity = 1

                         Standard orientation:
 ---------------------------------------------------------------------
 Center     Atomic      Atomic             Coordinates (Angstroms)
 Number     Number       Type             X           Y           Z
 ---------------------------------------------------------------------
      1          6           0       -5.358810    0.061550    0.317615
      2          8           0       -4.058512    0.645360    0.344617
      3          6           0       -2.994253   -0.181626    0.131899
      4          6           0       -3.075429   -1.571423   -0.105977
      5          6           0       -1.951332   -2.359372   -0.404594
      6          6           0       -0.664690   -1.797879   -0.416142
      7          6           0        0.634337   -2.438274   -0.906841
      8          6           0        1.917619   -1.561280   -0.685411
      9          6           0        1.595313   -0.092773   -1.079821
     10          6           0        2.616762    1.025124   -1.210629
     11          6           0        2.295982    2.309583   -0.955122
     12          6           0        0.943873    2.857036   -0.454797
     13          8           0        1.022533    3.412551    0.858745
     14          6           0       -0.028430    1.689257   -0.518823
     15          8           0       -1.340067    1.721059    0.156771
     16          6           0       -1.713077    0.373945    0.114345
     17          6           0       -0.622209   -0.457066   -0.084814
     18          6           0        0.594569    0.386089   -0.053678
     19          6           0        1.239777    0.404072    1.374450
     20          6           0        2.523551   -0.427445    1.424050
     21          7           0        2.340770   -1.698053    0.728431
     22          6           0        3.482655   -2.585031    0.883705
     23          1           0       -5.467183   -0.700288    1.096424
     24          1           0       -5.570720   -0.389076   -0.657652
     25          1           0       -6.056498    0.877217    0.504215
     26          1           0       -4.052155   -2.039652   -0.107651
     27          1           0       -2.104157   -3.406386   -0.649293
     28          1           0        0.530223   -2.649014   -1.980086
     29          1           0        0.806677   -3.405200   -0.423403
     30          1           0        2.704655   -1.952577   -1.345605
     31          1           0        1.089116   -0.169821   -2.053179
     32          1           0        3.613218    0.794247   -1.581693
     33          1           0        3.049279    3.078084   -1.116413
     34          1           0        0.619798    3.644814   -1.148381
     35          1           0        1.632348    4.169662    0.815228
     36          1           0       -0.261018    1.567664   -1.585912
     37          1           0        1.456937    1.426719    1.683174
     38          1           0        0.515702   -0.007835    2.082488
     39          1           0        3.364168    0.152728    1.006322
     40          1           0        2.780981   -0.649267    2.465327
     41          1           0        3.268119   -3.556176    0.427267
     42          1           0        3.677912   -2.747160    1.948482
     43          1           0        4.408319   -2.190988    0.423779
 ---------------------------------------------------------------------

 SCF Done:  E(RB3LYP) =  -978.900286000     A.U. after   11 cycles

 The electronic state is 1-A.
 Alpha  occ. eigenvalues --  -19.18023 -19.17602 -19.14846 -14.31829 -10.25034
 Alpha  occ. eigenvalues --  -10.24885 -10.24059 -10.23606 -10.23350 -10.21892
 Alpha  occ. eigenvalues --  -10.19924 -10.19732 -10.19725 -10.19556 -10.19084
 Alpha  occ. eigenvalues --  -10.19071 -10.19034 -10.18918 -10.18686 -10.18662
 Alpha  occ. eigenvalues --  -10.17753 -10.17246  -1.06785  -1.05329  -1.01921
 Alpha  occ. eigenvalues --   -0.92396  -0.86418  -0.84208  -0.78532  -0.77656
 Alpha  occ. eigenvalues --   -0.75896  -0.73802  -0.72429  -0.71662  -0.68626
 Alpha  occ. eigenvalues --   -0.65936  -0.63389  -0.62636  -0.59823  -0.59118
 Alpha  occ. eigenvalues --   -0.58345  -0.55239  -0.52889  -0.51963  -0.50394
 Alpha  occ. eigenvalues --   -0.50158  -0.49528  -0.47333  -0.46601  -0.46480
 Alpha  occ. eigenvalues --   -0.45999  -0.45475  -0.43999  -0.43839  -0.42823
 Alpha  occ. eigenvalues --   -0.41990  -0.41703  -0.41060  -0.40713  -0.40146
 Alpha  occ. eigenvalues --   -0.38523  -0.38133  -0.37518  -0.37168  -0.36695
 Alpha  occ. eigenvalues --   -0.35314  -0.35088  -0.34788  -0.33858  -0.33161
 Alpha  occ. eigenvalues --   -0.32602  -0.31774  -0.30302  -0.29963  -0.29854
 Alpha  occ. eigenvalues --   -0.26697  -0.25690  -0.22683  -0.20722  -0.20368
 Alpha virt. eigenvalues --    0.00090   0.00489   0.01221   0.07415   0.08865
 Alpha virt. eigenvalues --    0.09965   0.10879   0.11426   0.11805   0.12549
 Alpha virt. eigenvalues --    0.13283   0.13690   0.13922   0.14463   0.15423

 Mulliken charges:
               1
     1  C   -0.226512
     2  O   -0.536679
     3  C    0.311863
     4  C   -0.223963
     5  C   -0.246233
     6  C    0.147722
     7  C   -0.340058
     8  C    0.020397
     9  C   -0.158313
    10  C   -0.111678
    11  C   -0.169402
    12  C    0.079570
    13  O   -0.653648
    14  C    0.117318
    15  O   -0.599471
    16  C    0.317718
    17  C   -0.032752
    18  C   -0.028346
    19  C   -0.286167
    20  C   -0.130616
    21  N   -0.414180
    22  C   -0.308639
    23  H    0.167119
    24  H    0.166450
    25  H    0.179882
    26  H    0.154457
    27  H    0.139665
    28  H    0.155134
    29  H    0.155655
    30  H    0.133148
    31  H    0.159935
    32  H    0.148059
    33  H    0.149177
    34  H    0.150812
    35  H    0.442888
    36  H    0.153172
    37  H    0.170823
    38  H    0.142777
    39  H    0.122712
    40  H    0.144172
    41  H    0.157087
    42  H    0.153620
    43  H    0.125326
 Sum of Mulliken charges =  -0.00000

 Dipole moment (field-independent basis, Debye):
    X=              2.7564    Y=             -0.4906    Z=             -3.0923  Tot=              4.1714
 Quadrupole moment (field-independent basis, Debye-Ang):
   XX=           -104.1987   YY=           -116.2285   ZZ=           -128.6006
   XY=             13.0214   XZ=             -1.2309   YZ=             -2.1334

 Normal termination of Gaussian 16 at Wed Mar  2 06:49:32 2022.
