 Gaussian 16, Revision A.03,

 ----------------------------------------------------------------------
 #p b3lyp/6-31G(d) opt=(MaxStep=10,MaxCycles=1000) freq scf=(MaxCycle=2
 000,NoVarAcc,NoIncFock) scrf=(iefpcm,read,solvent=water)
 ----------------------------------------------------------------------

 ------------
 68.n.pdb.xyz
 ------------
 Symbolic Z-matrix:
 Charge =  0 Multiplicity = 1

 SCF Done:  E(RB3LYP) =  -425.650907472     A.U. after   12 cycles
 SCF Done:  E(RB3LYP) =  -425.652471070     A.U. after   10 cycles
 SCF Done:  E(RB3LYP) =  -425.652569490     A.U. after   10 cycles
 SCF Done:  E(RB3LYP) =  -425.652592700     A.U. after    9 cycles
 SCF Done:  E(RB3LYP) =  -425.652600787     A.U. after    8 cycles
 SCF Done:  E(RB3LYP) =  -425.652590438     A.U. after    8 cycles
 SCF Done:  E(RB3LYP) =  -425.652591984     A.U. after    8 cycles
 SCF Done:  E(RB3LYP) =  -425.652590491     A.U. after    8 cycles
 SCF Done:  E(RB3LYP) =  -425.652588123     A.U. after    8 cycles
 SCF Done:  E(RB3LYP) =  -425.652587767     A.U. after    8 cycles
 SCF Done:  E(RB3LYP) =  -425.652569603     A.U. after    9 cycles
 SCF Done:  E(RB3LYP) =  -425.652592265     A.U. after    9 cycles
 SCF Done:  E(RB3LYP) =  -425.652589896     A.U. after    8 cycles
 SCF Done:  E(RB3LYP) =  -425.652580389     A.U. after    9 cycles
 SCF Done:  E(RB3LYP) =  -425.652590787     A.U. after    9 cycles
 Optimization completed.
    -- Stationary point found.
 Normal termination of Gaussian 16 at Wed Mar  2 04:04:37 2022.

 --------------------------------------------------------------------
 #P Geom=AllCheck Guess=TCheck SCRF=Check GenChk RB3LYP/6-31G(d) Freq
 --------------------------------------------------------------------

 Structure from the checkpoint file:  "68.n.pdb.xyz.mst.wat.chk"
 ------------
 68.n.pdb.xyz
 ------------
 Charge =  0 Multiplicity = 1

 SCF Done:  E(RB3LYP) =  -425.652590787     A.U. after    1 cycles

  Exact polarizability: 115.052   0.570 101.200   0.669  -3.590  89.271
 Approx polarizability: 109.348   3.024 112.925  -0.432  -6.747  96.863

 ******    1 imaginary frequencies (negative Signs) ******

                      1                      2                      3
                      A                      A                      A
 Frequencies --    -64.7016                22.2764                46.5671
 Red. masses --      1.0406                 5.1020                 2.8522
 Frc consts  --      0.0026                 0.0015                 0.0036
 IR Inten    --      1.7266                 1.3417                 0.9604

                      4                      5                      6
                      A                      A                      A
 Frequencies --     97.2733               110.7194               182.8978
 Red. masses --      3.7368                 1.9908                 2.7316
 Frc consts  --      0.0208                 0.0144                 0.0538
 IR Inten    --      2.4278                 0.1729                 7.9091

                      7                      8                      9
                      A                      A                      A
 Frequencies --    218.8063               239.7911               248.2291
 Red. masses --      1.2016                 2.2251                 1.5009
 Frc consts  --      0.0339                 0.0754                 0.0545
 IR Inten    --      1.2774                 6.4621                 0.3908

                     10                     11                     12
                      A                      A                      A
 Frequencies --    262.8623               387.4388               388.6415
 Red. masses --      2.0951                 2.5151                 2.3822
 Frc consts  --      0.0853                 0.2224                 0.2120
 IR Inten    --      2.6374                 6.6289                 1.6144

                     13                     14                     15
                      A                      A                      A
 Frequencies --    456.1654               479.2299               604.2156
 Red. masses --      2.1959                 3.1661                 2.6835
 Frc consts  --      0.2692                 0.4284                 0.5772
 IR Inten    --      5.8878                 4.8942                11.0897

                     16                     17                     18
                      A                      A                      A
 Frequencies --    647.6649               788.0158               829.6145
 Red. masses --      4.6119                 1.2365                 2.3015
 Frc consts  --      1.1398                 0.4524                 0.9333
 IR Inten    --      8.2959                 1.3818                 4.8674

                     19                     20                     21
                      A                      A                      A
 Frequencies --    920.8707               937.8986               958.3681
 Red. masses --      3.7759                 1.1815                 1.6941
 Frc consts  --      1.8866                 0.6124                 0.9167
 IR Inten    --     16.1135                 2.0974                 5.4477

                     22                     23                     24
                      A                      A                      A
 Frequencies --    971.1447               983.9255              1000.7866
 Red. masses --      1.4143                 2.6323                 1.5654
 Frc consts  --      0.7859                 1.5015                 0.9237
 IR Inten    --      0.6136                 9.7680                 0.6767

                     25                     26                     27
                      A                      A                      A
 Frequencies --   1061.1682              1068.1708              1082.3875
 Red. masses --      2.6173                 1.7841                 2.7956
 Frc consts  --      1.7365                 1.1994                 1.9297
 IR Inten    --    135.5842                15.9508                39.8880

                     28                     29                     30
                      A                      A                      A
 Frequencies --   1163.9965              1192.9304              1200.8248
 Red. masses --      2.3116                 1.8322                 1.7726
 Frc consts  --      1.8453                 1.5362                 1.5060
 IR Inten    --      5.7264                 7.1551                 8.3937

                     31                     32                     33
                      A                      A                      A
 Frequencies --   1250.5156              1280.1895              1306.7962
 Red. masses --      1.3036                 2.9085                 1.3310
 Frc consts  --      1.2011                 2.8085                 1.3392
 IR Inten    --     31.3318               538.7858                37.4605

                     34                     35                     36
                      A                      A                      A
 Frequencies --   1315.3726              1379.1570              1388.2463
 Red. masses --      1.1598                 1.3748                 1.3570
 Frc consts  --      1.1823                 1.5407                 1.5409
 IR Inten    --      0.9007                 3.0407                 4.3719

                     37                     38                     39
                      A                      A                      A
 Frequencies --   1409.1891              1422.6114              1430.9812
 Red. masses --      1.3463                 1.2919                 1.6508
 Frc consts  --      1.5752                 1.5405                 1.9917
 IR Inten    --     67.8417                 4.9778                22.7048

                     40                     41                     42
                      A                      A                      A
 Frequencies --   1437.3463              1481.5097              1486.1956
 Red. masses --      1.2441                 1.0552                 1.0447
 Frc consts  --      1.5143                 1.3646                 1.3595
 IR Inten    --      4.2046                24.0001                11.2073

                     43                     44                     45
                      A                      A                      A
 Frequencies --   1506.8182              1509.4921              1515.0362
 Red. masses --      1.0834                 1.0512                 1.0596
 Frc consts  --      1.4493                 1.4112                 1.4330
 IR Inten    --      0.2925                 1.4751                 2.6839

                     46                     47                     48
                      A                      A                      A
 Frequencies --   1523.1824              1527.6996              1536.0409
 Red. masses --      1.0604                 1.0476                 1.0924
 Frc consts  --      1.4495                 1.4405                 1.5186
 IR Inten    --      3.4964                11.4248                 7.2933

                     49                     50                     51
                      A                      A                      A
 Frequencies --   1785.6169              3026.7158              3046.1149
 Red. masses --     10.7882                 1.0825                 1.0543
 Frc consts  --     20.2664                 5.8428                 5.7639
 IR Inten    --    440.3215                32.8545                27.7881

                     52                     53                     54
                      A                      A                      A
 Frequencies --   3048.3517              3054.7278              3084.0637
 Red. masses --      1.0371                 1.0408                 1.0831
 Frc consts  --      5.6780                 5.7223                 6.0698
 IR Inten    --     60.0184                45.5484                26.9176

                     55                     56                     57
                      A                      A                      A
 Frequencies --   3085.7566              3087.7583              3112.0899
 Red. masses --      1.0381                 1.0780                 1.1019
 Frc consts  --      5.8237                 6.0554                 6.2875
 IR Inten    --      3.0727                42.8677                 9.9076

                     58                     59                     60
                      A                      A                      A
 Frequencies --   3116.2101              3121.7117              3126.5347
 Red. masses --      1.1007                 1.1029                 1.1025
 Frc consts  --      6.2977                 6.3323                 6.3496
 IR Inten    --    137.9199                65.2331                71.6977

                     61                     62                     63
                      A                      A                      A
 Frequencies --   3141.5730              3150.3793              3194.7780
 Red. masses --      1.1061                 1.1012                 1.1038
 Frc consts  --      6.4317                 6.4394                 6.6376
 IR Inten    --     68.7614                 6.7842                14.3664

 - Thermochemistry -
 -------------------
 Temperature   298.150 Kelvin.  Pressure   1.00000 Atm.
 Atom     1 has atomic number  6 and mass  12.00000

 Molecular mass:   130.09938 amu.
 Principal axes and moments of inertia in atomic units:
                           1         2         3
     Eigenvalues --   424.108212998.918623263.30377
           X            0.99992  -0.01223   0.00281
           Y            0.01216   0.99968   0.02212
           Z           -0.00308  -0.02209   0.99975
 This molecule is an asymmetric top.
 Rotational symmetry number  1.
 Rotational temperatures (Kelvin)      0.20423     0.02888     0.02654
 Rotational constants (GHZ):           4.25538     0.60180     0.55304
    1 imaginary frequencies ignored.
 Zero-point vibrational energy     534979.8 (Joules/Mol)
                                  127.86325 (Kcal/Mol)
 Warning -- explicit consideration of  14 degrees of freedom as
           vibrations may cause significant error
 Vibrational temperatures:     32.05    67.00   139.95   159.30   263.15
          (Kelvin)            314.81   345.01   357.15   378.20   557.44
                              559.17   656.32   689.50   869.33   931.85
                             1133.78  1193.63  1324.93  1349.43  1378.88
                             1397.26  1415.65  1439.91  1526.78  1536.86
                             1557.31  1674.73  1716.36  1727.72  1799.21
                             1841.91  1880.19  1892.53  1984.30  1997.38
                             2027.51  2046.82  2058.86  2068.02  2131.56
                             2138.30  2167.98  2171.82  2179.80  2191.52
                             2198.02  2210.02  2569.10  4354.77  4382.68
                             4385.90  4395.07  4437.28  4439.72  4442.60
                             4477.60  4483.53  4491.45  4498.39  4520.02
                             4532.69  4596.57

 Zero-point correction=                           0.203763 (Hartree/Particle)
 Thermal correction to Energy=                    0.214474
 Thermal correction to Enthalpy=                  0.215419
 Thermal correction to Gibbs Free Energy=         0.166030
 Sum of electronic and zero-point Energies=           -425.448828
 Sum of electronic and thermal Energies=              -425.438116
 Sum of electronic and thermal Enthalpies=            -425.437172
 Sum of electronic and thermal Free Energies=         -425.486561

                     E (Thermal)             CV                S
                      KCal/Mol        Cal/Mol-Kelvin    Cal/Mol-Kelvin
 Total                  134.585             37.571            103.947
 Electronic               0.000              0.000              0.000
 Translational            0.889              2.981             40.502
 Rotational               0.889              2.981             29.808
 Vibrational            132.807             31.610             33.637
 Vibration     1          0.593              1.985              6.420
 Vibration     2          0.595              1.979              4.958
 Vibration     3          0.603              1.951              3.508
 Vibration     4          0.607              1.941              3.256
 Vibration     5          0.630              1.863              2.299
 Vibration     6          0.647              1.812              1.969
 Vibration     7          0.657              1.780              1.804
 Vibration     8          0.662              1.766              1.743
 Vibration     9          0.670              1.741              1.643
 Vibration    10          0.756              1.497              1.010
 Vibration    11          0.757              1.494              1.005
 Vibration    12          0.814              1.347              0.777
 Vibration    13          0.836              1.296              0.712
 Vibration    14          0.963              1.023              0.442

                           ! Non-Optimized Parameters !
 Normal termination of Gaussian 16 at Wed Mar  2 04:11:32 2022.

 ------------------------------------------
 #p b3lyp/6-31G(d) geom=allcheck guess=read
 ------------------------------------------

 Structure from the checkpoint file:  "68.n.pdb.xyz.mst.wat.chk"
 ------------
 68.n.pdb.xyz
 ------------
 Charge =  0 Multiplicity = 1

 SCF Done:  E(RB3LYP) =  -425.647403356     A.U. after   10 cycles

 1\1\GINC-PIRINEUS3\SP\RB3LYP\6-31G(d)\C7H14O2\UBATOR01\02-Mar-2022\0\\
 #p b3lyp/6-31G(d) geom=allcheck guess=read\\68.n.pdb.xyz\\0,1\C,0,-2.7
 792178726,-1.5429939184,0.0380638\C,0,-1.9126469631,-0.3130945501,-0.2
 600382567\C,0,-2.3785279612,0.8934118506,0.5665939608\C,0,-0.426904716
 ,-0.641511305,-0.0247626182\C,0,0.5140575244,0.4660328575,-0.467359214
 4\O,0,1.868132463,0.0083745968,-0.2246460938\C,0,2.8536238931,0.865687
 7115,-0.5425494541\C,0,4.2081577084,0.2778254975,-0.2449853678\O,0,2.6
 522146339,1.9717910632,-1.0105445877\H,0,-2.6896507744,-1.8377076766,1

 Normal termination of Gaussian 16 at Wed Mar  2 04:12:08 2022.
 Gaussian 16:  ES64L-G16RevA.03 25-Dec-2016

 ----------------------------------------------------------------------
 #p b3lyp/6-31G(d) scrf=(iefpcm,read,solvent=water) geom=allcheck guess
 =read
 ----------------------------------------------------------------------

 Structure from the checkpoint file:  "68.n.pdb.xyz.mst.wat.chk"
 ------------
 68.n.pdb.xyz
 ------------
 Charge =  0 Multiplicity = 1

                         Standard orientation:
 ---------------------------------------------------------------------
 Center     Atomic      Atomic             Coordinates (Angstroms)
 Number     Number       Type             X           Y           Z
 ---------------------------------------------------------------------
      1          6           0       -3.537604   -0.961384   -0.185503
      2          6           0       -2.391771    0.051176   -0.304879
      3          6           0       -2.665116    1.286378    0.564362
      4          6           0       -1.051295   -0.621271    0.043804
      5          6           0        0.155199    0.263044   -0.221371
      6          8           0        1.338546   -0.505217    0.112309
      7          6           0        2.518839    0.119022   -0.044140
      8          6           0        3.667650   -0.778821    0.334011
      9          8           0        2.621113    1.265240   -0.442605
     10          1           0       -3.631635   -1.324626    0.844708
     11          1           0       -3.370418   -1.829080   -0.832244
     12          1           0       -4.493671   -0.508270   -0.467554
     13          1           0       -2.340062    0.377971   -1.353165
     14          1           0       -3.619138    1.749998    0.292448
     15          1           0       -1.884460    2.045278    0.455746
     16          1           0       -2.717644    1.010744    1.624404
     17          1           0       -0.943615   -1.541156   -0.543823
     18          1           0       -1.053625   -0.916709    1.100410
     19          1           0        0.148399    1.170120    0.386506
     20          1           0        0.216850    0.560692   -1.271872
     21          1           0        4.609344   -0.248835    0.199650
     22          1           0        3.659114   -1.679083   -0.285894
     23          1           0        3.567880   -1.096100    1.375340
 ---------------------------------------------------------------------

 SCF Done:  E(RB3LYP) =  -425.652284848     A.U. after   10 cycles

 The electronic state is 1-A.
 Alpha  occ. eigenvalues --  -19.19134 -19.13890 -10.31984 -10.23725 -10.19015
 Alpha  occ. eigenvalues --  -10.18907 -10.18162 -10.17011 -10.16980  -1.10192
 Alpha  occ. eigenvalues --   -1.01374  -0.81377  -0.76630  -0.72297  -0.67997
 Alpha  occ. eigenvalues --   -0.63749  -0.56991  -0.55460  -0.49654  -0.48931
 Alpha  occ. eigenvalues --   -0.47369  -0.45648  -0.43470  -0.42916  -0.41338
 Alpha  occ. eigenvalues --   -0.40481  -0.38455  -0.38117  -0.36958  -0.35400
 Alpha  occ. eigenvalues --   -0.35263  -0.32691  -0.32227  -0.32136  -0.30187
 Alpha  occ. eigenvalues --   -0.27595
 Alpha virt. eigenvalues --    0.01059   0.08447   0.11062   0.12418   0.12745
 Alpha virt. eigenvalues --    0.13470   0.14552   0.15597   0.16314   0.16854
 Alpha virt. eigenvalues --    0.17312   0.18237   0.19111   0.19697   0.21743

 Mulliken charges:
               1
     1  C   -0.450692
     2  C   -0.075099
     3  C   -0.457519
     4  C   -0.278660
     5  C   -0.042078
     6  O   -0.463731
     7  C    0.623562
     8  C   -0.527189
     9  O   -0.531298
    10  H    0.143814
    11  H    0.145821
    12  H    0.145970
    13  H    0.132373
    14  H    0.147546
    15  H    0.150873
    16  H    0.145182
    17  H    0.147431
    18  H    0.145374
    19  H    0.164196
    20  H    0.161324
    21  H    0.181901
    22  H    0.195497
    23  H    0.195402
 Sum of Mulliken charges =  -0.00000

 Dipole moment (field-independent basis, Debye):
    X=             -1.3024    Y=             -2.1154    Z=              0.6185  Tot=              2.5601
 Quadrupole moment (field-independent basis, Debye-Ang):
   XX=            -54.0330   YY=            -59.8480   ZZ=            -55.0875
   XY=             -8.1260   XZ=              3.2249   YZ=              1.5179

 1\1\GINC-PIRINEUS3\SP\RB3LYP\6-31G(d)\C7H14O2\UBATOR01\02-Mar-2022\0\\
 #p b3lyp/6-31G(d) scrf=(iefpcm,read,solvent=water) geom=allcheck guess
 =read\\68.n.pdb.xyz\\0,1\C,0,-2.7792178726,-1.5429939184,0.0380638\C,0
 ,-1.9126469631,-0.3130945501,-0.2600382567\C,0,-2.3785279612,0.8934118
 506,0.5665939608\C,0,-0.426904716,-0.641511305,-0.0247626182\C,0,0.514
 0575244,0.4660328575,-0.4673592144\O,0,1.868132463,0.0083745968,-0.224
 6460938\C,0,2.8536238931,0.8656877115,-0.5425494541\C,0,4.2081577084,0
 .2778254975,-0.2449853678\O,0,2.6522146339,1.9717910632,-1.0105445877\

 Normal termination of Gaussian 16 at Wed Mar  2 04:12:54 2022.
