 Gaussian 16, Revision A.03,

 ----------------------------------------------------------------------
 #p b3lyp/6-31G(d) opt=(MaxStep=10,MaxCycles=1000) freq scf=(MaxCycle=2
 000,NoVarAcc,NoIncFock) scrf=(iefpcm,read,solvent=water)
 ----------------------------------------------------------------------

 ------------
 69.n.pdb.xyz
 ------------
 Symbolic Z-matrix:
 Charge =  0 Multiplicity = 1

 SCF Done:  E(RB3LYP) =  -1228.65882297     A.U. after   13 cycles
 SCF Done:  E(RB3LYP) =  -1228.66392632     A.U. after   11 cycles
 SCF Done:  E(RB3LYP) =  -1228.66309326     A.U. after   13 cycles
 SCF Done:  E(RB3LYP) =  -1228.66464131     A.U. after   12 cycles
 SCF Done:  E(RB3LYP) =  -1228.66667675     A.U. after    9 cycles
 SCF Done:  E(RB3LYP) =  -1228.66858904     A.U. after   11 cycles
 SCF Done:  E(RB3LYP) =  -1228.67011048     A.U. after   11 cycles
 SCF Done:  E(RB3LYP) =  -1228.66143923     A.U. after   13 cycles
 SCF Done:  E(RB3LYP) =  -1228.67142140     A.U. after   11 cycles
 SCF Done:  E(RB3LYP) =  -1228.67210101     A.U. after   11 cycles
 SCF Done:  E(RB3LYP) =  -1228.67476478     A.U. after    8 cycles
 SCF Done:  E(RB3LYP) =  -1228.67478374     A.U. after    8 cycles
 SCF Done:  E(RB3LYP) =  -1228.67478620     A.U. after    8 cycles
 SCF Done:  E(RB3LYP) =  -1228.67478684     A.U. after    8 cycles
 SCF Done:  E(RB3LYP) =  -1228.67478785     A.U. after    7 cycles
 SCF Done:  E(RB3LYP) =  -1228.67478692     A.U. after    7 cycles
 SCF Done:  E(RB3LYP) =  -1228.67478602     A.U. after    7 cycles
 Optimization completed.
    -- Stationary point found.
 Normal termination of Gaussian 16 at Wed Mar  2 06:27:06 2022.

 --------------------------------------------------------------------
 #P Geom=AllCheck Guess=TCheck SCRF=Check GenChk RB3LYP/6-31G(d) Freq
 --------------------------------------------------------------------

 Structure from the checkpoint file:  "69.n.pdb.xyz.mst.wat.chk"
 ------------
 69.n.pdb.xyz
 ------------
 Charge =  0 Multiplicity = 1

 SCF Done:  E(RB3LYP) =  -1228.67478602     A.U. after    1 cycles

  Exact polarizability: 376.363 -14.698 247.341 -11.784  -7.381 225.065
 Approx polarizability: 386.370 -21.471 280.895 -13.905 -10.043 260.126

                      1                      2                      3
                      A                      A                      A
 Frequencies --     24.3121                29.0006                35.5853
 Red. masses --      5.9287                 5.6598                 3.7888
 Frc consts  --      0.0021                 0.0028                 0.0028
 IR Inten    --      0.1348                 0.2892                 0.2771

                      4                      5                      6
                      A                      A                      A
 Frequencies --     48.7134                84.0089                86.7505
 Red. masses --      3.9900                 3.5695                 4.1958
 Frc consts  --      0.0056                 0.0148                 0.0186
 IR Inten    --      0.3667                 0.3612                 4.5849

                      7                      8                      9
                      A                      A                      A
 Frequencies --     92.7687               121.4468               133.4373
 Red. masses --      2.9382                 3.6913                 3.8935
 Frc consts  --      0.0149                 0.0321                 0.0408
 IR Inten    --      6.6258                 0.8097                 3.1800

                     10                     11                     12
                      A                      A                      A
 Frequencies --    171.7184               187.1450               231.9861
 Red. masses --      4.2912                 4.1714                 1.1640
 Frc consts  --      0.0746                 0.0861                 0.0369
 IR Inten    --      1.3770                 2.6942                 0.5581

                     13                     14                     15
                      A                      A                      A
 Frequencies --    244.8354               254.9820               278.3642
 Red. masses --      5.3065                 4.0706                 1.9383
 Frc consts  --      0.1874                 0.1559                 0.0885
 IR Inten    --      1.0207                15.9795                 0.7677

                     16                     17                     18
                      A                      A                      A
 Frequencies --    289.1556               295.4538               317.2051
 Red. masses --      3.0636                 2.1684                 1.8302
 Frc consts  --      0.1509                 0.1115                 0.1085
 IR Inten    --      7.3052                 5.0429                 8.5102

                     19                     20                     21
                      A                      A                      A
 Frequencies --    331.4333               340.6588               357.1441
 Red. masses --      1.6338                 3.8588                 2.5275
 Frc consts  --      0.1057                 0.2638                 0.1899
 IR Inten    --     14.6408                 6.0457                21.9790

                     22                     23                     24
                      A                      A                      A
 Frequencies --    371.7274               425.9667               440.0971
 Red. masses --      2.5785                 5.5880                 4.7377
 Frc consts  --      0.2099                 0.5974                 0.5407
 IR Inten    --      4.8052                 1.5773                 3.0862

                     25                     26                     27
                      A                      A                      A
 Frequencies --    466.6701               478.4784               499.0232
 Red. masses --      3.6266                 3.1178                 3.4867
 Frc consts  --      0.4653                 0.4206                 0.5116
 IR Inten    --      8.8109                46.7213                 4.4346

                     28                     29                     30
                      A                      A                      A
 Frequencies --    532.7922               554.1702               556.5959
 Red. masses --      4.4470                 3.3579                 2.8119
 Frc consts  --      0.7438                 0.6076                 0.5132
 IR Inten    --     56.5918               131.8506               211.7603

                     31                     32                     33
                      A                      A                      A
 Frequencies --    578.2894               585.0098               638.2065
 Red. masses --      3.6517                 2.5856                 4.2397
 Frc consts  --      0.7195                 0.5214                 1.0174
 IR Inten    --      8.3852               167.3589                97.6457

                     34                     35                     36
                      A                      A                      A
 Frequencies --    681.3918               689.8943               740.2833
 Red. masses --      5.9736                 5.5155                 4.2094
 Frc consts  --      1.6341                 1.5467                 1.3591
 IR Inten    --     16.8700                28.6752                10.6440

                     37                     38                     39
                      A                      A                      A
 Frequencies --    745.1284               767.9158               773.6734
 Red. masses --      2.7468                 4.7790                 3.8256
 Frc consts  --      0.8986                 1.6604                 1.3492
 IR Inten    --     27.7876                 0.9044                10.9168

                     40                     41                     42
                      A                      A                      A
 Frequencies --    778.6733               806.0781               824.6219
 Red. masses --      1.6090                 1.1584                 1.4052
 Frc consts  --      0.5748                 0.4434                 0.5630
 IR Inten    --     47.0969                 0.5306                31.0383

                     43                     44                     45
                      A                      A                      A
 Frequencies --    879.2402               881.1842               948.3310
 Red. masses --      1.3816                 1.5084                 1.3534
 Frc consts  --      0.6293                 0.6901                 0.7171
 IR Inten    --      1.7307                31.0378                 2.9627

                     46                     47                     48
                      A                      A                      A
 Frequencies --    959.0244               960.1591               979.2419
 Red. masses --      1.4495                 2.6856                 2.8360
 Frc consts  --      0.7854                 1.4588                 1.6023
 IR Inten    --     11.3636                53.7184                 8.8768

                     49                     50                     51
                      A                      A                      A
 Frequencies --    985.9342              1039.4969              1050.4049
 Red. masses --      1.2539                 6.9792                 3.6780
 Frc consts  --      0.7182                 4.4432                 2.3909
 IR Inten    --      0.0637               204.9105                30.9247

                     52                     53                     54
                      A                      A                      A
 Frequencies --   1058.8595              1066.9526              1069.4897
 Red. masses --      4.8807                 3.5815                 1.6887
 Frc consts  --      3.2241                 2.4022                 1.1380
 IR Inten    --     34.1399                33.3498                31.0747

                     55                     56                     57
                      A                      A                      A
 Frequencies --   1080.4940              1083.2242              1118.7313
 Red. masses --      2.0730                 2.1274                 1.6229
 Frc consts  --      1.4259                 1.4707                 1.1967
 IR Inten    --      5.2997                15.5374                 6.4503

                     58                     59                     60
                      A                      A                      A
 Frequencies --   1132.4300              1152.7166              1169.4039
 Red. masses --      1.2414                 1.8158                 1.3129
 Frc consts  --      0.9380                 1.4216                 1.0578
 IR Inten    --     10.4644                28.2963                12.1800

                     61                     62                     63
                      A                      A                      A
 Frequencies --   1182.4069              1189.7437              1196.0104
 Red. masses --      1.8394                 1.2218                 1.3045
 Frc consts  --      1.5152                 1.0190                 1.0994
 IR Inten    --     56.0398                 6.3931                11.8476

                     64                     65                     66
                      A                      A                      A
 Frequencies --   1208.6520              1225.5978              1237.9148
 Red. masses --      1.6964                 2.4729                 1.2563
 Frc consts  --      1.4601                 2.1885                 1.1343
 IR Inten    --     10.3960                32.7340                11.8542

                     67                     68                     69
                      A                      A                      A
 Frequencies --   1293.1082              1305.3178              1316.8089
 Red. masses --      2.2343                 1.5838                 1.1754
 Frc consts  --      2.2012                 1.5900                 1.2008
 IR Inten    --     28.3996                 4.9794                 5.2456

                     70                     71                     72
                      A                      A                      A
 Frequencies --   1322.9390              1335.7129              1345.2938
 Red. masses --      1.3854                 5.5260                 1.7459
 Frc consts  --      1.4286                 5.8088                 1.8617
 IR Inten    --      5.2104                41.3608                39.8834

                     73                     74                     75
                      A                      A                      A
 Frequencies --   1348.1829              1369.3858              1439.6067
 Red. masses --      3.3050                 4.2415                 1.3259
 Frc consts  --      3.5393                 4.6862                 1.6190
 IR Inten    --     32.6956                24.3540                34.2085

                     76                     77                     78
                      A                      A                      A
 Frequencies --   1464.9737              1470.2954              1477.7718
 Red. masses --      1.1564                 3.5672                 1.5262
 Frc consts  --      1.4622                 4.5434                 1.9638
 IR Inten    --      1.4711                97.8532                29.9392

                     79                     80                     81
                      A                      A                      A
 Frequencies --   1486.0144              1505.6947              1511.2909
 Red. masses --      1.5062                 1.0510                 1.4819
 Frc consts  --      1.9596                 1.4039                 1.9942
 IR Inten    --      6.6113                11.9954               127.2464

                     82                     83                     84
                      A                      A                      A
 Frequencies --   1511.8048              1515.5015              1531.9373
 Red. masses --      1.1034                 1.1883                 1.2817
 Frc consts  --      1.4858                 1.6080                 1.7722
 IR Inten    --     10.7873                 9.2273                30.2441

                     85                     86                     87
                      A                      A                      A
 Frequencies --   1532.1593              1543.9026              1549.7028
 Red. masses --      2.5890                 1.0898                 1.0585
 Frc consts  --      3.5809                 1.5305                 1.4978
 IR Inten    --     48.4012                 1.4187                 5.8848

                     88                     89                     90
                      A                      A                      A
 Frequencies --   1610.0330              1625.0984              1636.4454
 Red. masses --      6.3599                 5.5656                 5.3743
 Frc consts  --      9.7133                 8.6600                 8.4795
 IR Inten    --     74.8270                 2.9934                52.2783

                     91                     92                     93
                      A                      A                      A
 Frequencies --   1651.6761              1663.9184              2996.4697
 Red. masses --      4.3256                 1.2254                 1.0552
 Frc consts  --      6.9526                 1.9990                 5.5824
 IR Inten    --     73.5045               223.5645                64.7332

                     94                     95                     96
                      A                      A                      A
 Frequencies --   3000.4445              3074.3081              3080.0583
 Red. masses --      1.0578                 1.0580                 1.0566
 Frc consts  --      5.6111                 5.8913                 5.9056
 IR Inten    --    215.9158                11.9401                86.1985

                     97                     98                     99
                      A                      A                      A
 Frequencies --   3107.6697              3108.7201              3115.0448
 Red. masses --      1.0760                 1.0811                 1.1059
 Frc consts  --      6.1225                 6.1557                 6.3224
 IR Inten    --     74.7612                43.3648                 0.1961

                    100                    101                    102
                      A                      A                      A
 Frequencies --   3137.0175              3157.3371              3168.9385
 Red. masses --      1.1112                 1.1042                 1.1006
 Frc consts  --      6.4427                 6.4852                 6.5119
 IR Inten    --     97.9030                38.4845                26.4017

                    103                    104                    105
                      A                      A                      A
 Frequencies --   3192.2796              3203.3151              3204.8538
 Red. masses --      1.0899                 1.0856                 1.0875
 Frc consts  --      6.5440                 6.5633                 6.5813
 IR Inten    --     30.3264                 2.4732                11.8315

                    106                    107                    108
                      A                      A                      A
 Frequencies --   3215.5899              3220.7947              3225.3511
 Red. masses --      1.0899                 1.0947                 1.0920
 Frc consts  --      6.6398                 6.6909                 6.6932
 IR Inten    --     22.8297                26.6843                24.8737

                    109                    110                    111
                      A                      A                      A
 Frequencies --   3230.9958              3547.4702              3641.5041
 Red. masses --      1.0950                 1.0489                 1.0991
 Frc consts  --      6.7348                 7.7772                 8.5872
 IR Inten    --     34.1729                81.5568                63.5173

 - Thermochemistry -
 -------------------
 Temperature   298.150 Kelvin.  Pressure   1.00000 Atm.
 Atom     1 has atomic number  6 and mass  12.00000

 Molecular mass:   290.12530 amu.
 Principal axes and moments of inertia in atomic units:
                           1         2         3
     Eigenvalues --  2259.01426********************
           X            0.99998  -0.00617  -0.00089
           Y            0.00618   0.99994   0.00931
           Z            0.00083  -0.00932   0.99996
 This molecule is an asymmetric top.
 Rotational symmetry number  1.
 Warning -- assumption of classical behavior for rotation
           may cause significant error
 Rotational temperatures (Kelvin)      0.03834     0.00612     0.00580
 Rotational constants (GHZ):           0.79891     0.12745     0.12095
 Zero-point vibrational energy     847788.5 (Joules/Mol)
                                  202.62633 (Kcal/Mol)
 Warning -- explicit consideration of  32 degrees of freedom as
           vibrations may cause significant error
 Vibrational temperatures:     34.98    41.73    51.20    70.09   120.87
          (Kelvin)            124.81   133.47   174.73   191.99   247.06
                              269.26   333.78   352.26   366.86   400.50
                              416.03   425.09   456.39   476.86   490.13
                              513.85   534.83   612.87   633.20   671.43
                              688.42   717.98   766.57   797.33   800.82
                              832.03   841.70   918.24   980.37   992.60
                             1065.10  1072.07  1104.86  1113.14  1120.34
                             1159.77  1186.45  1265.03  1267.83  1364.44
                             1379.82  1381.45  1408.91  1418.54  1495.60
                             1511.30  1523.46  1535.11  1538.76  1554.59
                             1558.52  1609.60  1629.31  1658.50  1682.51
                             1701.22  1711.78  1720.79  1738.98  1763.36
                             1781.08  1860.49  1878.06  1894.59  1903.41
                             1921.79  1935.58  1939.73  1970.24  2071.27
                             2107.77  2115.43  2126.18  2138.04  2166.36
                             2174.41  2175.15  2180.47  2204.12  2204.44
                             2221.33  2229.68  2316.48  2338.15  2354.48
                             2376.39  2394.01  4311.25  4316.97  4423.24
                             4431.52  4471.24  4472.75  4481.85  4513.47
                             4542.70  4559.40  4592.98  4608.86  4611.07
                             4626.52  4634.01  4640.56  4648.68  5104.02
                             5239.31

 Zero-point correction=                           0.322906 (Hartree/Particle)
 Thermal correction to Energy=                    0.342709
 Thermal correction to Enthalpy=                  0.343654
 Thermal correction to Gibbs Free Energy=         0.272992
 Sum of electronic and zero-point Energies=          -1228.351880
 Sum of electronic and thermal Energies=             -1228.332077
 Sum of electronic and thermal Enthalpies=           -1228.331132
 Sum of electronic and thermal Free Energies=        -1228.401794

                     E (Thermal)             CV                S
                      KCal/Mol        Cal/Mol-Kelvin    Cal/Mol-Kelvin
 Total                  215.053             75.229            148.719
 Electronic               0.000              0.000              0.000
 Translational            0.889              2.981             42.893
 Rotational               0.889              2.981             34.522
 Vibrational            213.276             69.268             71.304
 Vibration     1          0.593              1.985              6.247
 Vibration     2          0.593              1.984              5.897
 Vibration     3          0.594              1.982              5.491
 Vibration     4          0.595              1.978              4.869
 Vibration     5          0.601              1.960              3.795
 Vibration     6          0.601              1.958              3.732
 Vibration     7          0.602              1.954              3.601
 Vibration     8          0.609              1.931              3.077
 Vibration     9          0.613              1.920              2.896
 Vibration    10          0.626              1.877              2.417
 Vibration    11          0.632              1.857              2.256
 Vibration    12          0.653              1.792              1.864
 Vibration    13          0.660              1.771              1.767
 Vibration    14          0.665              1.754              1.696
 Vibration    15          0.679              1.714              1.544
 Vibration    16          0.686              1.694              1.479
 Vibration    17          0.690              1.682              1.443
 Vibration    18          0.704              1.641              1.324
 Vibration    19          0.714              1.613              1.253
 Vibration    20          0.720              1.594              1.209
 Vibration    21          0.732              1.561              1.135
 Vibration    22          0.743              1.530              1.073
 Vibration    23          0.788              1.414              0.872
 Vibration    24          0.800              1.383              0.826
 Vibration    25          0.824              1.324              0.747
 Vibration    26          0.835              1.298              0.714
 Vibration    27          0.854              1.252              0.661
 Vibration    28          0.888              1.177              0.581
 Vibration    29          0.910              1.131              0.536
 Vibration    30          0.912              1.125              0.531
 Vibration    31          0.935              1.078              0.489
 Vibration    32          0.942              1.064              0.476

 Optimization completed.
    -- Stationary point found.
 Normal termination of Gaussian 16 at Wed Mar  2 07:11:38 2022.

 ------------------------------------------
 #p b3lyp/6-31G(d) geom=allcheck guess=read
 ------------------------------------------

 Structure from the checkpoint file:  "69.n.pdb.xyz.mst.wat.chk"
 ------------
 69.n.pdb.xyz
 ------------
 Charge =  0 Multiplicity = 1

 SCF Done:  E(RB3LYP) =  -1228.66035477     A.U. after   12 cycles
 Normal termination of Gaussian 16 at Wed Mar  2 07:14:48 2022.
 Gaussian 16:  ES64L-G16RevA.03 25-Dec-2016

 ----------------------------------------------------------------------
 #p b3lyp/6-31G(d) scrf=(iefpcm,read,solvent=water) geom=allcheck guess
 =read
 ----------------------------------------------------------------------

 Structure from the checkpoint file:  "69.n.pdb.xyz.mst.wat.chk"
 ------------
 69.n.pdb.xyz
 ------------
 Charge =  0 Multiplicity = 1

                         Standard orientation:
 ---------------------------------------------------------------------
 Center     Atomic      Atomic             Coordinates (Angstroms)
 Number     Number       Type             X           Y           Z
 ---------------------------------------------------------------------
      1          6           0        5.204657   -1.278002    0.871292
      2          7           0        3.877773   -1.175755    0.269769
      3          6           0        3.806810   -1.959762   -0.970405
      4          6           0        3.367813    0.150854    0.132221
      5          6           0        1.968498    0.352364    0.153653
      6         16           0        0.935263   -1.092769    0.438393
      7          6           0       -0.733313   -0.469992    0.289025
      8          6           0       -1.334349   -0.270618   -0.980071
      9          7           0       -0.648705   -0.502553   -2.159779
     10          6           0       -2.687757    0.122614   -1.013420
     11          6           0       -3.434998    0.307064    0.148347
     12          6           0       -4.894658    0.687878    0.058309
     13          6           0       -5.801439   -0.534756    0.132765
     14          9           0       -7.138244   -0.122165    0.051572
     15          6           0       -2.825644    0.101592    1.395810
     16          6           0       -1.489058   -0.279065    1.453369
     17          6           0        1.444550    1.640131    0.016578
     18          6           0        2.294262    2.739911   -0.117186
     19          6           0        3.675144    2.557202   -0.109006
     20          6           0        4.202547    1.269551    0.010794
     21          1           0        5.403517   -2.330600    1.089421
     22          1           0        5.235118   -0.714834    1.806479
     23          1           0        6.012785   -0.914321    0.216633
     24          1           0        2.795328   -1.925434   -1.376009
     25          1           0        4.053636   -3.001437   -0.746471
     26          1           0        4.511183   -1.591496   -1.733826
     27          1           0        0.358300   -0.393830   -2.114838
     28          1           0       -1.038349   -0.046755   -2.977441
     29          1           0       -3.158850    0.285473   -1.978980
     30          1           0       -5.094047    1.208243   -0.883095
     31          1           0       -5.163574    1.363719    0.876015
     32          1           0       -5.670829   -1.070580    1.077260
     33          1           0       -5.609204   -1.222420   -0.695922
     34          1           0       -3.389997    0.248872    2.310731
     35          1           0       -1.008424   -0.433591    2.413549
     36          1           0        0.370150    1.781613    0.042829
     37          1           0        1.871546    3.734726   -0.211490
     38          1           0        4.342871    3.407438   -0.201679
     39          1           0        5.276958    1.125356    0.006025
 ---------------------------------------------------------------------

 SCF Done:  E(RB3LYP) =  -1228.67301517     A.U. after   11 cycles

 The electronic state is 1-A.
 Alpha  occ. eigenvalues --  -88.88976 -24.67210 -14.34274 -14.33840 -10.25602
 Alpha  occ. eigenvalues --  -10.23977 -10.22645 -10.22277 -10.21458 -10.20424
 Alpha  occ. eigenvalues --  -10.20412 -10.20349 -10.19718 -10.19294 -10.19094
 Alpha  occ. eigenvalues --  -10.19039 -10.19006 -10.18936 -10.18695 -10.18322
 Alpha  occ. eigenvalues --   -7.94919  -5.91440  -5.91036  -5.90451  -1.17614
 Alpha  occ. eigenvalues --   -0.93804  -0.92276  -0.85507  -0.84852  -0.80672
 Alpha  occ. eigenvalues --   -0.77476  -0.74552  -0.73735  -0.73010  -0.70711
 Alpha  occ. eigenvalues --   -0.68698  -0.64871  -0.63329  -0.61254  -0.59999
 Alpha  occ. eigenvalues --   -0.57901  -0.57189  -0.52065  -0.51540  -0.50507
 Alpha  occ. eigenvalues --   -0.48876  -0.48259  -0.47781  -0.47307  -0.46348
 Alpha  occ. eigenvalues --   -0.45790  -0.44561  -0.43978  -0.43734  -0.42841
 Alpha  occ. eigenvalues --   -0.42710  -0.41650  -0.39642  -0.39091  -0.38552
 Alpha  occ. eigenvalues --   -0.38496  -0.37816  -0.37005  -0.36777  -0.36162
 Alpha  occ. eigenvalues --   -0.35152  -0.34495  -0.33889  -0.32825  -0.32173
 Alpha  occ. eigenvalues --   -0.30972  -0.29215  -0.26510  -0.25061  -0.22666
 Alpha  occ. eigenvalues --   -0.21123  -0.20482
 Alpha virt. eigenvalues --   -0.01918  -0.00483  -0.00377   0.00680   0.05741
 Alpha virt. eigenvalues --    0.06966   0.09118   0.10225   0.10988   0.11610
 Alpha virt. eigenvalues --    0.11986   0.12899   0.13773   0.14222   0.14481

 Mulliken charges:
               1
     1  C   -0.317078
     2  N   -0.467566
     3  C   -0.313071
     4  C    0.250768
     5  C   -0.134532
     6  S    0.095466
     7  C   -0.184515
     8  C    0.310854
     9  N   -0.822850
    10  C   -0.241032
    11  C    0.142756
    12  C   -0.387390
    13  C    0.050172
    14  F   -0.342614
    15  C   -0.202063
    16  C   -0.159794
    17  C   -0.181218
    18  C   -0.139368
    19  C   -0.169913
    20  C   -0.173755
    21  H    0.164953
    22  H    0.168467
    23  H    0.143623
    24  H    0.173972
    25  H    0.162288
    26  H    0.140489
    27  H    0.365170
    28  H    0.374082
    29  H    0.146642
    30  H    0.167133
    31  H    0.167701
    32  H    0.150805
    33  H    0.150582
    34  H    0.143575
    35  H    0.158479
    36  H    0.158056
    37  H    0.149140
    38  H    0.150124
    39  H    0.151460
 Sum of Mulliken charges =  -0.00000

 Dipole moment (field-independent basis, Debye):
    X=              2.7401    Y=              1.7836    Z=             -2.6518  Tot=              4.2097
 Quadrupole moment (field-independent basis, Debye-Ang):
   XX=           -127.7499   YY=           -123.2713   ZZ=           -115.9169
   XY=             -1.4376   XZ=             -1.3101   YZ=             -1.6007

 Normal termination of Gaussian 16 at Wed Mar  2 07:18:30 2022.
