 Gaussian 16, Revision A.03,

 ----------------------------------------------------------------------
 #p b3lyp/6-31G(d) opt=(MaxStep=10,MaxCycles=1000) freq scf=(MaxCycle=2
 000,NoVarAcc,NoIncFock) scrf=(iefpcm,read,solvent=water)
 ----------------------------------------------------------------------

 -----------
 7.n.pdb.xyz
 -----------
 Symbolic Z-matrix:
 Charge =  0 Multiplicity = 1

 SCF Done:  E(RB3LYP) =  -3690.81849933     A.U. after   13 cycles
 SCF Done:  E(RB3LYP) =  -3690.82186673     A.U. after   10 cycles
 SCF Done:  E(RB3LYP) =  -3690.82371981     A.U. after   13 cycles
 SCF Done:  E(RB3LYP) =  -3690.82457882     A.U. after   10 cycles
 SCF Done:  E(RB3LYP) =  -3690.82508652     A.U. after   12 cycles
 SCF Done:  E(RB3LYP) =  -3690.82554184     A.U. after   13 cycles
 SCF Done:  E(RB3LYP) =  -3690.82589379     A.U. after   10 cycles
 SCF Done:  E(RB3LYP) =  -3690.82607224     A.U. after   10 cycles
 SCF Done:  E(RB3LYP) =  -3690.82622324     A.U. after   10 cycles
 SCF Done:  E(RB3LYP) =  -3690.82620900     A.U. after    9 cycles
 SCF Done:  E(RB3LYP) =  -3690.82624325     A.U. after    9 cycles
 SCF Done:  E(RB3LYP) =  -3690.82624463     A.U. after    9 cycles
 SCF Done:  E(RB3LYP) =  -3690.82625523     A.U. after    8 cycles
 SCF Done:  E(RB3LYP) =  -3690.82625212     A.U. after    8 cycles
 SCF Done:  E(RB3LYP) =  -3690.82625229     A.U. after    6 cycles
 Optimization completed.
    -- Stationary point found.
 Normal termination of Gaussian 16 at Wed Mar  2 04:52:03 2022.

 --------------------------------------------------------------------
 #P Geom=AllCheck Guess=TCheck SCRF=Check GenChk RB3LYP/6-31G(d) Freq
 --------------------------------------------------------------------

 Structure from the checkpoint file:  "7.n.pdb.xyz.mst.wat.chk"
 -----------
 7.n.pdb.xyz
 -----------
 Charge =  0 Multiplicity = 1

 SCF Done:  E(RB3LYP) =  -3690.82625229     A.U. after    1 cycles

  Exact polarizability: 451.825  13.933 321.252  -2.247  17.090 207.010
 Approx polarizability: 471.129  20.461 384.537  -3.662  25.525 239.697

                      1                      2                      3
                      A                      A                      A
 Frequencies --      8.8538                14.3970                18.3173
 Red. masses --      8.7430                 6.6274                 4.7871
 Frc consts  --      0.0004                 0.0008                 0.0009
 IR Inten    --      0.0541                 0.8890                 0.8473

                      4                      5                      6
                      A                      A                      A
 Frequencies --     27.9555                41.9806                47.3725
 Red. masses --      5.5103                 4.2314                 5.8112
 Frc consts  --      0.0025                 0.0044                 0.0077
 IR Inten    --      0.0861                 0.4419                 0.5181

                      7                      8                      9
                      A                      A                      A
 Frequencies --     64.8114                83.7283                93.4024
 Red. masses --      4.9118                 6.9550                 3.9549
 Frc consts  --      0.0122                 0.0287                 0.0203
 IR Inten    --      1.6317                 0.5703                 6.7991

                     10                     11                     12
                      A                      A                      A
 Frequencies --    110.2120               117.8020               144.6549
 Red. masses --      2.2570                 4.3509                 3.4467
 Frc consts  --      0.0162                 0.0356                 0.0425
 IR Inten    --      0.5352                 0.0593                 0.5920

                     13                     14                     15
                      A                      A                      A
 Frequencies --    153.2735               173.1847               189.6645
 Red. masses --      4.1069                 3.9713                 3.7416
 Frc consts  --      0.0568                 0.0702                 0.0793
 IR Inten    --      0.1281                 2.1444                 0.6079

                     16                     17                     18
                      A                      A                      A
 Frequencies --    213.8565               228.0742               260.3636
 Red. masses --      3.4199                 4.6130                 3.9361
 Frc consts  --      0.0922                 0.1414                 0.1572
 IR Inten    --      4.6307                 0.5097                 8.6030

                     19                     20                     21
                      A                      A                      A
 Frequencies --    288.9558               295.6346               330.9399
 Red. masses --      5.6933                 6.3173                 4.1920
 Frc consts  --      0.2801                 0.3253                 0.2705
 IR Inten    --      0.6982                 0.3094                 6.6560

                     22                     23                     24
                      A                      A                      A
 Frequencies --    335.1569               360.6140               375.6929
 Red. masses --      3.7876                 4.4851                 2.1397
 Frc consts  --      0.2507                 0.3436                 0.1779
 IR Inten    --      4.9283                 0.4721                10.9305

                     25                     26                     27
                      A                      A                      A
 Frequencies --    389.7670               400.2389               419.9357
 Red. masses --      4.6071                 5.1442                 2.4822
 Frc consts  --      0.4124                 0.4855                 0.2579
 IR Inten    --      5.6363                 5.3169                36.5350

                     28                     29                     30
                      A                      A                      A
 Frequencies --    425.1311               425.7616               446.7899
 Red. masses --      3.6714                 3.7533                 3.4960
 Frc consts  --      0.3910                 0.4009                 0.4112
 IR Inten    --      9.4423                10.9675                10.9819

                     31                     32                     33
                      A                      A                      A
 Frequencies --    459.2416               494.5798               499.9302
 Red. masses --      1.5033                 2.3786                 3.4444
 Frc consts  --      0.1868                 0.3428                 0.5072
 IR Inten    --    105.7462               121.9041                10.2212

                     34                     35                     36
                      A                      A                      A
 Frequencies --    501.9630               532.3786               556.4291
 Red. masses --      3.6073                 3.2250                 2.9122
 Frc consts  --      0.5355                 0.5385                 0.5312
 IR Inten    --      8.8731                 4.9292                29.1974

                     37                     38                     39
                      A                      A                      A
 Frequencies --    580.7512               583.0622               608.0979
 Red. masses --      2.1275                 3.9964                 7.0063
 Frc consts  --      0.4228                 0.8005                 1.5265
 IR Inten    --     10.5347                 2.5434                51.8919

                     40                     41                     42
                      A                      A                      A
 Frequencies --    643.9324               644.2345               696.3928
 Red. masses --      7.0897                 7.1797                 3.0961
 Frc consts  --      1.7320                 1.7557                 0.8847
 IR Inten    --      0.6442                 0.5069                11.5358

                     43                     44                     45
                      A                      A                      A
 Frequencies --    715.9112               739.8385               741.2113
 Red. masses --      3.6187                 4.2417                 3.7674
 Frc consts  --      1.0927                 1.3679                 1.2195
 IR Inten    --      0.0688                14.1557                 1.5284

                     46                     47                     48
                      A                      A                      A
 Frequencies --    767.2551               770.2704               804.5521
 Red. masses --      1.3057                 3.5519                 2.8685
 Frc consts  --      0.4529                 1.2417                 1.0940
 IR Inten    --     18.8925                 5.8547                10.1794

                     49                     50                     51
                      A                      A                      A
 Frequencies --    835.3380               842.2837               845.2307
 Red. masses --      1.2784                 1.5812                 1.5008
 Frc consts  --      0.5256                 0.6609                 0.6317
 IR Inten    --     16.5457                34.3861                53.8217

                     52                     53                     54
                      A                      A                      A
 Frequencies --    847.6942               853.4828               862.9051
 Red. masses --      1.4841                 5.5984                 1.3141
 Frc consts  --      0.6283                 2.4027                 0.5765
 IR Inten    --     30.4252                30.8753                12.2754

                     55                     56                     57
                      A                      A                      A
 Frequencies --    882.7283               906.5502               963.7086
 Red. masses --      1.5962                 2.8692                 2.1771
 Frc consts  --      0.7328                 1.3893                 1.1913
 IR Inten    --      7.5983                10.1812                 4.1698

                     58                     59                     60
                      A                      A                      A
 Frequencies --    972.2093               977.7602               983.0752
 Red. masses --      1.3217                 3.2868                 1.4325
 Frc consts  --      0.7361                 1.8513                 0.8157
 IR Inten    --      1.6409                42.8426                 0.5524

                     61                     62                     63
                      A                      A                      A
 Frequencies --    990.1146               998.4852              1001.5769
 Red. masses --      1.3121                 1.6271                 2.8424
 Frc consts  --      0.7579                 0.9558                 1.6800
 IR Inten    --      0.1339                19.0601                73.2736

                     64                     65                     66
                      A                      A                      A
 Frequencies --   1012.2658              1023.2676              1031.8021
 Red. masses --      2.9306                 3.8190                 2.4124
 Frc consts  --      1.7693                 2.3560                 1.5132
 IR Inten    --    153.7600                 9.2282                 4.9575

                     67                     68                     69
                      A                      A                      A
 Frequencies --   1035.8029              1054.3704              1072.8536
 Red. masses --      1.7718                 2.5857                 2.1826
 Frc consts  --      1.1200                 1.6936                 1.4802
 IR Inten    --      3.0993                 2.9464                 5.8452

                     70                     71                     72
                      A                      A                      A
 Frequencies --   1094.2131              1095.1294              1099.6115
 Red. masses --      3.1882                 2.6883                 1.8698
 Frc consts  --      2.2490                 1.8996                 1.3321
 IR Inten    --     13.5776                16.3023                14.6129

                     73                     74                     75
                      A                      A                      A
 Frequencies --   1116.7496              1125.5851              1132.2722
 Red. masses --      2.5465                 1.2708                 1.6482
 Frc consts  --      1.8712                 0.9486                 1.2450
 IR Inten    --     23.3840                19.6986                53.0698

                     76                     77                     78
                      A                      A                      A
 Frequencies --   1149.1482              1164.6536              1184.1535
 Red. masses --      1.7844                 2.2539                 1.1880
 Frc consts  --      1.3883                 1.8013                 0.9815
 IR Inten    --     37.6786                56.3520               114.9942

                     79                     80                     81
                      A                      A                      A
 Frequencies --   1187.2396              1205.6745              1215.5427
 Red. masses --      2.5499                 1.2027                 1.3758
 Frc consts  --      2.1176                 1.0301                 1.1977
 IR Inten    --     62.2372                12.4597                 9.8927

                     82                     83                     84
                      A                      A                      A
 Frequencies --   1223.4703              1226.8756              1248.8076
 Red. masses --      2.0381                 1.9667                 1.6074
 Frc consts  --      1.7975                 1.7442                 1.4770
 IR Inten    --     56.9061                83.6001                58.2723

                     85                     86                     87
                      A                      A                      A
 Frequencies --   1272.1774              1283.6177              1298.5756
 Red. masses --      3.8673                 1.2711                 1.5897
 Frc consts  --      3.6876                 1.2340                 1.5795
 IR Inten    --    167.3889                45.1266                28.7287

                     88                     89                     90
                      A                      A                      A
 Frequencies --   1302.4525              1312.0384              1319.3146
 Red. masses --      1.3482                 1.2462                 1.3884
 Frc consts  --      1.3475                 1.2640                 1.4239
 IR Inten    --     10.7031                14.3828                67.0724

                     91                     92                     93
                      A                      A                      A
 Frequencies --   1328.2311              1335.5442              1341.1243
 Red. masses --      1.3061                 1.2855                 5.9715
 Frc consts  --      1.3576                 1.3510                 6.3281
 IR Inten    --      9.0376                 1.6156                 7.3139

                     94                     95                     96
                      A                      A                      A
 Frequencies --   1344.7398              1362.6175              1367.7274
 Red. masses --      1.3443                 1.3075                 9.8614
 Frc consts  --      1.4323                 1.4303                10.8690
 IR Inten    --     83.0761                46.8872                11.5473

                     97                     98                     99
                      A                      A                      A
 Frequencies --   1385.0650              1399.4050              1403.4465
 Red. masses --      1.3732                 1.4998                 1.7227
 Frc consts  --      1.5521                 1.7305                 1.9992
 IR Inten    --     73.7963                 9.9960                38.5407

                    100                    101                    102
                      A                      A                      A
 Frequencies --   1406.0303              1423.9400              1435.6643
 Red. masses --      1.6462                 1.5536                 2.6442
 Frc consts  --      1.9174                 1.8560                 3.2111
 IR Inten    --     93.9395                47.4330                 9.4241

                    103                    104                    105
                      A                      A                      A
 Frequencies --   1446.5620              1453.7664              1474.9540
 Red. masses --      1.4993                 3.2921                 1.0969
 Frc consts  --      1.8484                 4.0993                 1.4059
 IR Inten    --      1.2974                35.5739                17.4838

                    106                    107                    108
                      A                      A                      A
 Frequencies --   1500.5850              1507.0655              1513.4993
 Red. masses --      1.0856                 1.0854                 1.0977
 Frc consts  --      1.4402                 1.4524                 1.4815
 IR Inten    --      3.6552                 2.7420                 0.4313

                    109                    110                    111
                      A                      A                      A
 Frequencies --   1519.9054              1527.9732              1531.3161
 Red. masses --      1.0884                 1.0984                 2.1822
 Frc consts  --      1.4814                 1.5109                 3.0149
 IR Inten    --      3.2336                10.6604                73.3876

                    112                    113                    114
                      A                      A                      A
 Frequencies --   1541.7364              1553.2858              1626.1537
 Red. masses --      1.1021                 2.6366                 7.0685
 Frc consts  --      1.5435                 3.7480                11.0129
 IR Inten    --      6.2353                48.9263                 1.6190

                    115                    116                    117
                      A                      A                      A
 Frequencies --   1642.4362              1645.0523              1655.5191
 Red. masses --      7.2365                 5.8045                 5.9883
 Frc consts  --     11.5015                 9.2550                 9.6698
 IR Inten    --     68.1210                 7.4007               243.1809

                    118                    119                    120
                      A                      A                      A
 Frequencies --   1743.6514              2918.3813              2934.6637
 Red. masses --     11.2689                 1.0722                 1.0737
 Frc consts  --     20.1860                 5.3801                 5.4482
 IR Inten    --    335.1424               118.7301               183.3040

                    121                    122                    123
                      A                      A                      A
 Frequencies --   2961.0008              3049.2870              3070.4135
 Red. masses --      1.0741                 1.0608                 1.0852
 Frc consts  --      5.5485                 5.8114                 6.0275
 IR Inten    --    149.1294                27.8132                37.3285

                    124                    125                    126
                      A                      A                      A
 Frequencies --   3072.4703              3074.5231              3077.0424
 Red. masses --      1.0679                 1.0700                 1.0826
 Frc consts  --      5.9393                 5.9594                 6.0395
 IR Inten    --     61.3782                12.1410                46.3605

                    127                    128                    129
                      A                      A                      A
 Frequencies --   3079.8856              3087.9798              3099.1990
 Red. masses --      1.0901                 1.0753                 1.0729
 Frc consts  --      6.0921                 6.0415                 6.0717
 IR Inten    --     30.5489                28.7237                79.8198

                    130                    131                    132
                      A                      A                      A
 Frequencies --   3114.7681              3120.8390              3141.9266
 Red. masses --      1.1026                 1.1035                 1.1043
 Frc consts  --      6.3029                 6.3321                 6.4229
 IR Inten    --     59.3830                82.3187                46.7187

                    133                    134                    135
                      A                      A                      A
 Frequencies --   3213.8911              3231.3759              3233.8615
 Red. masses --      1.0882                 1.0883                 1.0883
 Frc consts  --      6.6222                 6.6951                 6.7059
 IR Inten    --     19.4341                 1.5556                 5.1677

                    136                    137                    138
                      A                      A                      A
 Frequencies --   3236.1403              3238.2033              3244.2463
 Red. masses --      1.0881                 1.0938                 1.0936
 Frc consts  --      6.7141                 6.7576                 6.7815
 IR Inten    --      5.2586                12.9702                 8.8318

                    139                    140                    141
                      A                      A                      A
 Frequencies --   3244.9509              3248.1878              3702.7934
 Red. masses --      1.0951                 1.0952                 1.0661
 Frc consts  --      6.7937                 6.8084                 8.6121
 IR Inten    --     11.9146                 6.7272                66.3665

 - Thermochemistry -
 -------------------
 Temperature   298.150 Kelvin.  Pressure   1.00000 Atm.
 Atom     1 has atomic number  8 and mass  15.99491

 Molecular mass:   419.08962 amu.
 Principal axes and moments of inertia in atomic units:
                           1         2         3
     Eigenvalues --  1741.61529********************
           X            1.00000   0.00028   0.00198
           Y           -0.00025   0.99991  -0.01325
           Z           -0.00199   0.01325   0.99991
 This molecule is an asymmetric top.
 Rotational symmetry number  1.
 Warning -- assumption of classical behavior for rotation
           may cause significant error
 Rotational temperatures (Kelvin)      0.04973     0.00147     0.00145
 Rotational constants (GHZ):           1.03625     0.03056     0.03019
 Zero-point vibrational energy    1058039.5 (Joules/Mol)
                                  252.87751 (Kcal/Mol)
 Warning -- explicit consideration of  39 degrees of freedom as
           vibrations may cause significant error
 Vibrational temperatures:     12.74    20.71    26.35    40.22    60.40
          (Kelvin)             68.16    93.25   120.47   134.39   158.57
                              169.49   208.13   220.53   249.17   272.88
                              307.69   328.15   374.61   415.74   425.35
                              476.15   482.22   518.84   540.54   560.79
                              575.85   604.19   611.67   612.58   642.83
                              660.75   711.59   719.29   722.21   765.97
                              800.58   835.57   838.90   874.92   926.48
                              926.91  1001.95  1030.04  1064.46  1066.44
                             1103.91  1108.25  1157.57  1201.87  1211.86
                             1216.10  1219.64  1227.97  1241.53  1270.05
                             1304.32  1386.56  1398.79  1406.78  1414.43
                             1424.55  1436.60  1441.05  1456.42  1472.25
                             1484.53  1490.29  1517.00  1543.60  1574.33
                             1575.65  1582.10  1606.75  1619.47  1629.09
                             1653.37  1675.68  1703.73  1708.17  1734.70
                             1748.89  1760.30  1765.20  1796.76  1830.38
                             1846.84  1868.36  1873.94  1887.73  1898.20
                             1911.03  1921.55  1929.58  1934.78  1960.50
                             1967.85  1992.80  2013.43  2019.25  2022.96
                             2048.73  2065.60  2081.28  2091.65  2122.13
                             2159.01  2168.33  2177.59  2186.80  2198.41
                             2203.22  2218.21  2234.83  2339.67  2363.10
                             2366.86  2381.92  2508.73  4198.90  4222.33
                             4260.22  4387.24  4417.64  4420.60  4423.55
                             4427.18  4431.27  4442.91  4459.06  4481.46
                             4490.19  4520.53  4624.07  4649.23  4652.81
                             4656.08  4659.05  4667.75  4668.76  4673.42
                             5327.49

 Zero-point correction=                           0.402986 (Hartree/Particle)
 Thermal correction to Energy=                    0.427182
 Thermal correction to Enthalpy=                  0.428126
 Thermal correction to Gibbs Free Energy=         0.343682
 Sum of electronic and zero-point Energies=          -3690.423266
 Sum of electronic and thermal Energies=             -3690.399071
 Sum of electronic and thermal Enthalpies=           -3690.398126
 Sum of electronic and thermal Free Energies=        -3690.482570

                     E (Thermal)             CV                S
                      KCal/Mol        Cal/Mol-Kelvin    Cal/Mol-Kelvin
 Total                  268.061             92.447            177.726
 Electronic               0.000              0.000              0.000
 Translational            0.889              2.981             43.989
 Rotational               0.889              2.981             37.062
 Vibrational            266.283             86.485             96.676
 Vibration     1          0.593              1.987              8.253
 Vibration     2          0.593              1.986              7.287
 Vibration     3          0.593              1.986              6.809
 Vibration     4          0.593              1.984              5.969
 Vibration     5          0.595              1.980              5.163
 Vibration     6          0.595              1.979              4.924
 Vibration     7          0.597              1.971              4.305
 Vibration     8          0.601              1.960              3.802
 Vibration     9          0.602              1.954              3.588
 Vibration    10          0.606              1.941              3.265
 Vibration    11          0.608              1.935              3.136
 Vibration    12          0.616              1.908              2.741
 Vibration    13          0.619              1.899              2.631
 Vibration    14          0.627              1.875              2.401
 Vibration    15          0.633              1.854              2.231
 Vibration    16          0.644              1.820              2.011
 Vibration    17          0.651              1.798              1.894
 Vibration    18          0.668              1.745              1.659
 Vibration    19          0.686              1.694              1.480
 Vibration    20          0.690              1.682              1.441
 Vibration    21          0.713              1.614              1.255
 Vibration    22          0.716              1.605              1.235
 Vibration    23          0.735              1.553              1.119
 Vibration    24          0.747              1.522              1.056
 Vibration    25          0.758              1.492              1.001
 Vibration    26          0.766              1.470              0.962
 Vibration    27          0.783              1.427              0.892
 Vibration    28          0.787              1.416              0.875
 Vibration    29          0.788              1.414              0.873
 Vibration    30          0.806              1.368              0.806
 Vibration    31          0.817              1.340              0.768
 Vibration    32          0.850              1.262              0.672
 Vibration    33          0.855              1.250              0.658
 Vibration    34          0.857              1.246              0.653
 Vibration    35          0.887              1.178              0.582
 Vibration    36          0.912              1.126              0.531
 Vibration    37          0.937              1.073              0.484
 Vibration    38          0.940              1.068              0.480
 Vibration    39          0.967              1.015              0.436

                           ! Non-Optimized Parameters !
 Normal termination of Gaussian 16 at Wed Mar  2 06:21:47 2022.

 ------------------------------------------
 #p b3lyp/6-31G(d) geom=allcheck guess=read
 ------------------------------------------

 Structure from the checkpoint file:  "7.n.pdb.xyz.mst.wat.chk"
 -----------
 7.n.pdb.xyz
 -----------
 Charge =  0 Multiplicity = 1

 SCF Done:  E(RB3LYP) =  -3690.80966674     A.U. after   12 cycles
 Normal termination of Gaussian 16 at Wed Mar  2 06:26:34 2022.
 Gaussian 16:  ES64L-G16RevA.03 25-Dec-2016

 ----------------------------------------------------------------------
 #p b3lyp/6-31G(d) scrf=(iefpcm,read,solvent=water) geom=allcheck guess
 =read
 ----------------------------------------------------------------------

 Structure from the checkpoint file:  "7.n.pdb.xyz.mst.wat.chk"
 -----------
 7.n.pdb.xyz
 -----------
 Charge =  0 Multiplicity = 1

                         Standard orientation:
 ---------------------------------------------------------------------
 Center     Atomic      Atomic             Coordinates (Angstroms)
 Number     Number       Type             X           Y           Z
 ---------------------------------------------------------------------
      1          8           0        1.902885    1.424781    1.034670
      2          6           0        2.286556    0.195723    0.403701
      3          6           0        1.823177   -0.934856    1.359524
      4          6           0        0.474629   -1.541608    0.953952
      5          7           0       -0.443714   -0.495337    0.508490
      6          6           0       -1.821446   -0.968618    0.408424
      7          6           0       -2.828220    0.171303    0.245602
      8          6           0       -4.262313   -0.348093    0.184914
      9          6           0       -5.297105    0.742403   -0.030692
     10          8           0       -4.966156    1.919676   -0.139825
     11          6           0       -6.734915    0.352065   -0.109246
     12          6           0       -7.695122    1.359636   -0.292964
     13          6           0       -9.046928    1.050965   -0.374847
     14          6           0       -9.425126   -0.284556   -0.270488
     15          9           0      -10.734914   -0.594311   -0.349173
     16          6           0       -8.505633   -1.311048   -0.088309
     17          6           0       -7.155103   -0.982972   -0.008002
     18          6           0        0.012239    0.118631   -0.751972
     19          6           0        1.537877    0.047306   -0.931550
     20          6           0        3.803548    0.148880    0.198422
     21          6           0        4.403081   -0.904963   -0.507810
     22          6           0        5.782883   -0.961744   -0.692531
     23          6           0        6.576251    0.050901   -0.159441
     24         35           0        8.474370   -0.016688   -0.408534
     25          6           0        6.016502    1.106366    0.550748
     26          6           0        4.631489    1.145780    0.724379
     27          1           0        2.056947    2.144589    0.397048
     28          1           0        1.761444   -0.500488    2.360562
     29          1           0        2.573265   -1.727389    1.393883
     30          1           0        0.625202   -2.317360    0.179890
     31          1           0        0.028167   -2.047031    1.815408
     32          1           0       -2.049945   -1.523968    1.325283
     33          1           0       -1.937959   -1.679630   -0.433888
     34          1           0       -2.611821    0.737545   -0.665142
     35          1           0       -2.717463    0.869610    1.081711
     36          1           0       -4.519192   -0.888038    1.105511
     37          1           0       -4.371228   -1.085945   -0.620481
     38          1           0       -7.357358    2.386138   -0.369435
     39          1           0       -9.801256    1.815660   -0.516186
     40          1           0       -8.848499   -2.335674   -0.012967
     41          1           0       -6.426311   -1.771796    0.133326
     42          1           0       -0.458632   -0.382097   -1.616368
     43          1           0       -0.314874    1.163266   -0.774889
     44          1           0        1.815260   -0.911258   -1.379659
     45          1           0        1.859910    0.823421   -1.634067
     46          1           0        3.792387   -1.699802   -0.922446
     47          1           0        6.233430   -1.779528   -1.241603
     48          1           0        6.646542    1.884866    0.963918
     49          1           0        4.187514    1.960470    1.282734
 ---------------------------------------------------------------------

 SCF Done:  E(RB3LYP) =  -3690.82354977     A.U. after   11 cycles

 The electronic state is 1-A.
 Alpha  occ. eigenvalues -- -482.91411 -61.87594 -56.39718 -56.39318 -56.39310
 Alpha  occ. eigenvalues --  -24.71670 -19.14417 -19.14307 -14.31816 -10.28557
 Alpha  occ. eigenvalues --  -10.28118 -10.24838 -10.24687 -10.21086 -10.20712
 Alpha  occ. eigenvalues --  -10.20416 -10.20413 -10.20374 -10.20352 -10.20278
 Alpha  occ. eigenvalues --  -10.20272 -10.20271 -10.20226 -10.20078 -10.19900
 Alpha  occ. eigenvalues --  -10.19571 -10.19154 -10.18372 -10.17953 -10.17899
 Alpha  occ. eigenvalues --   -8.58738  -6.54110  -6.52875  -6.52845  -2.65687
 Alpha  occ. eigenvalues --   -2.65335  -2.65313  -2.64327  -2.64327  -1.22863
 Alpha  occ. eigenvalues --   -1.04098  -1.02008  -0.91943  -0.87487  -0.87281
 Alpha  occ. eigenvalues --   -0.81417  -0.79823  -0.78046  -0.76568  -0.76398
 Alpha  occ. eigenvalues --   -0.75614  -0.75051  -0.72719  -0.69424  -0.64720
 Alpha  occ. eigenvalues --   -0.63783  -0.63391  -0.62257  -0.61815  -0.59306
 Alpha  occ. eigenvalues --   -0.58115  -0.55303  -0.54760  -0.53502  -0.52854
 Alpha  occ. eigenvalues --   -0.50332  -0.49599  -0.48758  -0.47971  -0.47536
 Alpha  occ. eigenvalues --   -0.46990  -0.46578  -0.46356  -0.45890  -0.45567
 Alpha  occ. eigenvalues --   -0.43968  -0.43722  -0.43546  -0.43119  -0.42485
 Alpha  occ. eigenvalues --   -0.41233  -0.40534  -0.40147  -0.39849  -0.39408
 Alpha  occ. eigenvalues --   -0.38567  -0.37967  -0.37681  -0.36496  -0.36021
 Alpha  occ. eigenvalues --   -0.35764  -0.35574  -0.35282  -0.34986  -0.34560
 Alpha  occ. eigenvalues --   -0.33791  -0.32647  -0.32075  -0.31863  -0.30295
 Alpha  occ. eigenvalues --   -0.29091  -0.27320  -0.26945  -0.26228  -0.25704
 Alpha  occ. eigenvalues --   -0.25492  -0.23862  -0.20725
 Alpha virt. eigenvalues --   -0.05716  -0.01719  -0.01529  -0.01076   0.00526
 Alpha virt. eigenvalues --    0.04097   0.07672   0.08872   0.09924   0.10408
 Alpha virt. eigenvalues --    0.11494   0.12265   0.12873   0.13354   0.13716

 Mulliken charges:
               1
     1  O   -0.688584
     2  C    0.276452
     3  C   -0.282997
     4  C   -0.133254
     5  N   -0.424107
     6  C   -0.115221
     7  C   -0.261883
     8  C   -0.382331
     9  C    0.424812
    10  O   -0.527770
    11  C    0.081588
    12  C   -0.168302
    13  C   -0.207466
    14  C    0.391976
    15  F   -0.300037
    16  C   -0.211427
    17  C   -0.188294
    18  C   -0.105614
    19  C   -0.340236
    20  C    0.124234
    21  C   -0.196262
    22  C   -0.167162
    23  C    0.073112
    24  Br  -0.155000
    25  C   -0.161750
    26  C   -0.199270
    27  H    0.430341
    28  H    0.153784
    29  H    0.149382
    30  H    0.118872
    31  H    0.149970
    32  H    0.141144
    33  H    0.111704
    34  H    0.153127
    35  H    0.145950
    36  H    0.183232
    37  H    0.182780
    38  H    0.166613
    39  H    0.173238
    40  H    0.173974
    41  H    0.173672
    42  H    0.122732
    43  H    0.149267
    44  H    0.158006
    45  H    0.154208
    46  H    0.160750
    47  H    0.169683
    48  H    0.168470
    49  H    0.153894
 Sum of Mulliken charges =  -0.00000

 Dipole moment (field-independent basis, Debye):
    X=             -2.4784    Y=             -3.6981    Z=             -1.6700  Tot=              4.7547
 Quadrupole moment (field-independent basis, Debye-Ang):
   XX=           -187.2441   YY=           -155.8037   ZZ=           -166.1712
   XY=             14.5946   XZ=             -2.9424   YZ=             -1.1533

 Normal termination of Gaussian 16 at Wed Mar  2 06:32:22 2022.
