 Gaussian 16, Revision A.03,

 ----------------------------------------------------------------------
 #p b3lyp/6-31G(d) opt=(MaxStep=10,MaxCycles=1000) freq scf=(MaxCycle=2
 000,NoVarAcc,NoIncFock) scrf=(iefpcm,read,solvent=water)
 ----------------------------------------------------------------------

 ------------
 70.n.pdb.xyz
 ------------
 Symbolic Z-matrix:
 Charge =  0 Multiplicity = 1

 SCF Done:  E(RB3LYP) =  -594.130446413     A.U. after   12 cycles
 SCF Done:  E(RB3LYP) =  -594.133102564     A.U. after   11 cycles
 SCF Done:  E(RB3LYP) =  -594.133579890     A.U. after   10 cycles
 SCF Done:  E(RB3LYP) =  -594.133711924     A.U. after    9 cycles
 SCF Done:  E(RB3LYP) =  -594.133734211     A.U. after   10 cycles
 SCF Done:  E(RB3LYP) =  -594.133931344     A.U. after    9 cycles
 SCF Done:  E(RB3LYP) =  -594.131746916     A.U. after   12 cycles
 SCF Done:  E(RB3LYP) =  -594.134186994     A.U. after   10 cycles
 SCF Done:  E(RB3LYP) =  -594.134213950     A.U. after    9 cycles
 SCF Done:  E(RB3LYP) =  -594.134220898     A.U. after    8 cycles
 SCF Done:  E(RB3LYP) =  -594.134223117     A.U. after    8 cycles
 SCF Done:  E(RB3LYP) =  -594.134226035     A.U. after    8 cycles
 SCF Done:  E(RB3LYP) =  -594.134226987     A.U. after    8 cycles
 SCF Done:  E(RB3LYP) =  -594.134226684     A.U. after    7 cycles
 Optimization completed.
    -- Stationary point found.
 Normal termination of Gaussian 16 at Tue Mar  1 05:38:18 2022.

 --------------------------------------------------------------------
 #P Geom=AllCheck Guess=TCheck SCRF=Check GenChk RB3LYP/6-31G(d) Freq
 --------------------------------------------------------------------

 Structure from the checkpoint file:  "70.n.pdb.xyz.mst.wat.chk"
 ------------
 70.n.pdb.xyz
 ------------
 Charge =  0 Multiplicity = 1

 SCF Done:  E(RB3LYP) =  -594.134226684     A.U. after    1 cycles

  Exact polarizability: 252.870  20.969 171.016   0.087   0.328  77.648
 Approx polarizability: 262.947  26.485 202.588   1.657   0.934  88.219

                      1                      2                      3
                      A                      A                      A
 Frequencies --     31.4080                61.4656                73.4613
 Red. masses --      3.3435                 1.9186                 4.5013
 Frc consts  --      0.0019                 0.0043                 0.0143
 IR Inten    --      1.4649                 0.6914                 3.1083

                      4                      5                      6
                      A                      A                      A
 Frequencies --     76.3790               107.7422               179.7782
 Red. masses --      4.1844                 4.1347                 3.3181
 Frc consts  --      0.0144                 0.0283                 0.0632
 IR Inten    --      3.0185                 1.5578                 2.0893

                      7                      8                      9
                      A                      A                      A
 Frequencies --    193.8241               251.2675               270.1209
 Red. masses --      4.2372                 1.0901                 4.7203
 Frc consts  --      0.0938                 0.0406                 0.2029
 IR Inten    --      5.1962                 0.0215                 0.6768

                     10                     11                     12
                      A                      A                      A
 Frequencies --    295.0288               337.6792               371.2154
 Red. masses --      4.6374                 4.2160                 1.1207
 Frc consts  --      0.2378                 0.2832                 0.0910
 IR Inten    --     23.9538                29.6421               138.6265

                     13                     14                     15
                      A                      A                      A
 Frequencies --    380.4591               417.9495               425.6128
 Red. masses --      5.0354                 3.3911                 3.0350
 Frc consts  --      0.4294                 0.3490                 0.3239
 IR Inten    --      2.9453                 1.7763                26.1763

                     16                     17                     18
                      A                      A                      A
 Frequencies --    463.6240               523.9087               538.1652
 Red. masses --      1.2947                 2.7190                 5.2084
 Frc consts  --      0.1640                 0.4397                 0.8888
 IR Inten    --    739.0696               109.4262                 3.0433

                     19                     20                     21
                      A                      A                      A
 Frequencies --    632.7062               651.7520               705.4988
 Red. masses --      5.7815                 6.9333                 3.8456
 Frc consts  --      1.3636                 1.7352                 1.1277
 IR Inten    --      9.7528                 3.1054                15.4580

                     22                     23                     24
                      A                      A                      A
 Frequencies --    764.7469               770.9188               825.3331
 Red. masses --      2.6202                 1.4223                 5.2495
 Frc consts  --      0.9029                 0.4980                 2.1068
 IR Inten    --     51.8939                 5.3080                 0.3669

                     25                     26                     27
                      A                      A                      A
 Frequencies --    838.7761               854.7991               866.1589
 Red. masses --      1.2562                 1.8594                 5.8590
 Frc consts  --      0.5207                 0.8005                 2.5898
 IR Inten    --      0.5790                54.6559                 3.0769

                     28                     29                     30
                      A                      A                      A
 Frequencies --    904.1295               932.3531               973.1728
 Red. masses --      1.1364                 1.7330                 1.3019
 Frc consts  --      0.5473                 0.8876                 0.7265
 IR Inten    --      3.2924                16.1462                 0.0129

                     31                     32                     33
                      A                      A                      A
 Frequencies --    986.1232               997.1058              1026.2922
 Red. masses --      1.2852                 7.1138                 2.7563
 Frc consts  --      0.7363                 4.1671                 1.7105
 IR Inten    --      0.1348                36.4202                23.1643

                     34                     35                     36
                      A                      A                      A
 Frequencies --   1061.5706              1093.4237              1141.3540
 Red. masses --      2.5186                 1.4497                 3.7679
 Frc consts  --      1.6723                 1.0212                 2.8919
 IR Inten    --     23.3005                13.9681               264.6443

                     37                     38                     39
                      A                      A                      A
 Frequencies --   1154.1426              1162.0888              1193.9261
 Red. masses --      1.1705                 2.4789                 1.5722
 Frc consts  --      0.9186                 1.9724                 1.3205
 IR Inten    --     55.7225                48.0056                 2.2851

                     40                     41                     42
                      A                      A                      A
 Frequencies --   1199.4625              1275.2573              1298.4717
 Red. masses --      1.2328                 1.2210                 2.7497
 Frc consts  --      1.0450                 1.1699                 2.7315
 IR Inten    --    490.8547                 1.4307               966.9465

                     43                     44                     45
                      A                      A                      A
 Frequencies --   1320.2265              1342.0296              1346.8760
 Red. masses --      1.0890                 1.6302                 1.6206
 Frc consts  --      1.1184                 1.7299                 1.7321
 IR Inten    --      0.3057                31.0579                95.6629

                     46                     47                     48
                      A                      A                      A
 Frequencies --   1349.0547              1392.3060              1431.6915
 Red. masses --      2.4715                 4.5149                 1.6420
 Frc consts  --      2.6501                 5.1567                 1.9829
 IR Inten    --    214.4923                11.8876                42.4878

                     49                     50                     51
                      A                      A                      A
 Frequencies --   1442.3926              1490.8019              1507.8079
 Red. masses --      1.2352                 3.0757                 1.0641
 Frc consts  --      1.5141                 4.0275                 1.4253
 IR Inten    --      0.1911                20.9431                 0.5906

                     52                     53                     54
                      A                      A                      A
 Frequencies --   1525.2803              1530.0985              1542.1603
 Red. masses --      1.0400                 1.0786                 1.0977
 Frc consts  --      1.4255                 1.4878                 1.5382
 IR Inten    --      8.3373                 1.6874                15.3271

                     55                     56                     57
                      A                      A                      A
 Frequencies --   1565.1303              1615.5885              1656.5072
 Red. masses --      2.7406                 6.3625                 3.2627
 Frc consts  --      3.9555                 9.7846                 5.2748
 IR Inten    --     66.5324                26.2956               392.5575

                     58                     59                     60
                      A                      A                      A
 Frequencies --   1664.6966              1739.1771              3064.4778
 Red. masses --      1.3598                12.0377                 1.0362
 Frc consts  --      2.2203                21.4527                 5.7335
 IR Inten    --    527.1250               540.8206                36.8633

                     61                     62                     63
                      A                      A                      A
 Frequencies --   3066.8434              3080.9775              3100.0318
 Red. masses --      1.0608                 1.0564                 1.1024
 Frc consts  --      5.8787                 5.9080                 6.2418
 IR Inten    --     21.2342                72.0239                 2.9806

                     64                     65                     66
                      A                      A                      A
 Frequencies --   3125.0713              3134.5072              3138.1430
 Red. masses --      1.1062                 1.1069                 1.1020
 Frc consts  --      6.3651                 6.4079                 6.3939
 IR Inten    --      0.1908               157.6449                54.3159

                     67                     68                     69
                      A                      A                      A
 Frequencies --   3203.3985              3207.0270              3231.0142
 Red. masses --      1.0897                 1.0889                 1.0926
 Frc consts  --      6.5881                 6.5982                 6.7202
 IR Inten    --     26.0004                26.3421                18.6744

                     70                     71                     72
                      A                      A                      A
 Frequencies --   3237.6455              3555.2394              3656.2062
 Red. masses --      1.0924                 1.0480                 1.1013
 Frc consts  --      6.7468                 7.8048                 8.6743
 IR Inten    --      8.8577               157.9852                67.7888

 - Thermochemistry -
 -------------------
 Temperature   298.150 Kelvin.  Pressure   1.00000 Atm.
 Atom     1 has atomic number  6 and mass  12.00000

 Molecular mass:   179.09463 amu.
 Principal axes and moments of inertia in atomic units:
                           1         2         3
     Eigenvalues --   753.108865705.412896423.66407
           X            0.99997  -0.00704  -0.00146
           Y            0.00703   0.99997  -0.00219
           Z            0.00148   0.00218   1.00000
 This molecule is an asymmetric top.
 Rotational symmetry number  1.
 Warning -- assumption of classical behavior for rotation
           may cause significant error
 Rotational temperatures (Kelvin)      0.11501     0.01518     0.01348
 Rotational constants (GHZ):           2.39639     0.31632     0.28095
 Zero-point vibrational energy     571641.9 (Joules/Mol)
                                  136.62569 (Kcal/Mol)
 Warning -- explicit consideration of  18 degrees of freedom as
           vibrations may cause significant error
 Vibrational temperatures:     45.19    88.44   105.69   109.89   155.02
          (Kelvin)            258.66   278.87   361.52   388.64   424.48
                              485.85   534.10   547.40   601.34   612.36
                              667.05   753.79   774.30   910.32   937.73
                             1015.06  1100.30  1109.18  1187.47  1206.81
                             1229.87  1246.21  1300.84  1341.45  1400.18
                             1418.81  1434.61  1476.61  1527.36  1573.19
                             1642.15  1660.55  1671.99  1717.79  1725.76
                             1834.81  1868.21  1899.51  1930.88  1937.85
                             1940.99  2003.22  2059.88  2075.28  2144.93
                             2169.40  2194.54  2201.47  2218.82  2251.87
                             2324.47  2383.34  2395.13  2502.29  4409.10
                             4412.50  4432.84  4460.25  4496.28  4509.86
                             4515.09  4608.98  4614.20  4648.71  4658.25
                             5115.20  5260.47

 Zero-point correction=                           0.217727 (Hartree/Particle)
 Thermal correction to Energy=                    0.230690
 Thermal correction to Enthalpy=                  0.231634
 Thermal correction to Gibbs Free Energy=         0.177237
 Sum of electronic and zero-point Energies=           -593.916500
 Sum of electronic and thermal Energies=              -593.903537
 Sum of electronic and thermal Enthalpies=            -593.902593
 Sum of electronic and thermal Free Energies=         -593.956989

                     E (Thermal)             CV                S
                      KCal/Mol        Cal/Mol-Kelvin    Cal/Mol-Kelvin
 Total                  144.760             48.202            114.487
 Electronic               0.000              0.000              0.000
 Translational            0.889              2.981             41.455
 Rotational               0.889              2.981             31.690
 Vibrational            142.983             42.240             41.342
 Vibration     1          0.594              1.983              5.738
 Vibration     2          0.597              1.973              4.410
 Vibration     3          0.599              1.967              4.058
 Vibration     4          0.599              1.965              3.982
 Vibration     5          0.606              1.943              3.309
 Vibration     6          0.629              1.867              2.331
 Vibration     7          0.635              1.848              2.191
 Vibration     8          0.663              1.761              1.722
 Vibration     9          0.674              1.728              1.595
 Vibration    10          0.689              1.683              1.445
 Vibration    11          0.718              1.600              1.223
 Vibration    12          0.743              1.531              1.075
 Vibration    13          0.750              1.512              1.037
 Vibration    14          0.781              1.431              0.899
 Vibration    15          0.787              1.415              0.873
 Vibration    16          0.821              1.331              0.756
 Vibration    17          0.879              1.197              0.601
 Vibration    18          0.893              1.166              0.569

 Optimization completed.
    -- Stationary point found.
 Normal termination of Gaussian 16 at Tue Mar  1 05:52:09 2022.

 ------------------------------------------
 #p b3lyp/6-31G(d) geom=allcheck guess=read
 ------------------------------------------

 Structure from the checkpoint file:  "70.n.pdb.xyz.mst.wat.chk"
 ------------
 70.n.pdb.xyz
 ------------
 Charge =  0 Multiplicity = 1

 SCF Done:  E(RB3LYP) =  -594.117359211     A.U. after   12 cycles
 Normal termination of Gaussian 16 at Tue Mar  1 05:53:32 2022.
 Gaussian 16:  ES64L-G16RevA.03 25-Dec-2016

 ----------------------------------------------------------------------
 #p b3lyp/6-31G(d) scrf=(iefpcm,read,solvent=water) geom=allcheck guess
 =read
 ----------------------------------------------------------------------

 Structure from the checkpoint file:  "70.n.pdb.xyz.mst.wat.chk"
 ------------
 70.n.pdb.xyz
 ------------
 Charge =  0 Multiplicity = 1

                         Standard orientation:
 ---------------------------------------------------------------------
 Center     Atomic      Atomic             Coordinates (Angstroms)
 Number     Number       Type             X           Y           Z
 ---------------------------------------------------------------------
      1          6           0        5.290954   -0.677549    0.008655
      2          6           0        3.793698   -0.991825    0.001611
      3          6           0        2.952977    0.272713   -0.000804
      4          8           0        1.563227   -0.123340   -0.004730
      5          6           0        0.655356    0.876694   -0.002232
      6          8           0        0.979784    2.058348    0.001748
      7          6           0       -0.733611    0.389365   -0.004679
      8          6           0       -1.060739   -0.977933   -0.008220
      9          6           0       -2.382602   -1.392411   -0.007099
     10          6           0       -3.435097   -0.448763   -0.003252
     11          7           0       -4.747363   -0.855684   -0.058450
     12          6           0       -3.102875    0.925312    0.001704
     13          6           0       -1.778853    1.328280    0.000286
     14          1           0        5.580849   -0.098443   -0.874328
     15          1           0        5.879384   -1.599112    0.011359
     16          1           0        5.571798   -0.099433    0.894705
     17          1           0        3.532011   -1.589809    0.880061
     18          1           0        3.538898   -1.590794   -0.879679
     19          1           0        3.143006    0.886663    0.884191
     20          1           0        3.147936    0.887098   -0.884399
     21          1           0       -0.265551   -1.713853   -0.008408
     22          1           0       -2.621137   -2.451351   -0.009513
     23          1           0       -5.445223   -0.187201    0.246691
     24          1           0       -4.943102   -1.802951    0.243631
     25          1           0       -3.898980    1.662717    0.006155
     26          1           0       -1.527691    2.382901    0.006714
 ---------------------------------------------------------------------

 SCF Done:  E(RB3LYP) =  -594.133348409     A.U. after   11 cycles

 The electronic state is 1-A.
 Alpha  occ. eigenvalues --  -19.18701 -19.13080 -14.33993 -10.31271 -10.23950
 Alpha  occ. eigenvalues --  -10.23615 -10.19721 -10.19624 -10.19173 -10.18725
 Alpha  occ. eigenvalues --  -10.18718 -10.18415 -10.17548  -1.09615  -1.00614
 Alpha  occ. eigenvalues --   -0.92153  -0.84539  -0.79196  -0.75030  -0.74589
 Alpha  occ. eigenvalues --   -0.69452  -0.62651  -0.61706  -0.59212  -0.56478
 Alpha  occ. eigenvalues --   -0.53158  -0.51170  -0.49968  -0.49264  -0.46770
 Alpha  occ. eigenvalues --   -0.44480  -0.43790  -0.42686  -0.42480  -0.42175
 Alpha  occ. eigenvalues --   -0.39661  -0.38924  -0.37761  -0.36743  -0.36087
 Alpha  occ. eigenvalues --   -0.34417  -0.33775  -0.33421  -0.31184  -0.29885
 Alpha  occ. eigenvalues --   -0.27368  -0.25779  -0.20911
 Alpha virt. eigenvalues --   -0.03307  -0.00341   0.06838   0.09560   0.10163
 Alpha virt. eigenvalues --    0.11193   0.12820   0.13414   0.14151   0.15359
 Alpha virt. eigenvalues --    0.16625   0.17768   0.18129   0.18410   0.19063

 Mulliken charges:
               1
     1  C   -0.459545
     2  C   -0.275253
     3  C   -0.026692
     4  O   -0.490860
     5  C    0.598488
     6  O   -0.566102
     7  C    0.038433
     8  C   -0.185821
     9  C   -0.201505
    10  C    0.325380
    11  N   -0.822904
    12  C   -0.202488
    13  C   -0.179010
    14  H    0.152961
    15  H    0.156793
    16  H    0.153067
    17  H    0.151897
    18  H    0.151634
    19  H    0.157471
    20  H    0.157509
    21  H    0.159827
    22  H    0.150042
    23  H    0.377068
    24  H    0.377190
    25  H    0.150210
    26  H    0.152212
 Sum of Mulliken charges =  -0.00000

 Dipole moment (field-independent basis, Debye):
    X=             -3.7361    Y=             -3.8434    Z=              1.1993  Tot=              5.4926
 Quadrupole moment (field-independent basis, Debye-Ang):
   XX=            -39.7781   YY=            -77.3284   ZZ=            -78.7266
   XY=              0.6094   XZ=             -6.2830   YZ=             -1.1980

 Normal termination of Gaussian 16 at Tue Mar  1 05:55:08 2022.
