 Gaussian 16, Revision A.03,

 ----------------------------------------------------------------------
 #p b3lyp/6-31G(d) opt=(MaxStep=10,MaxCycles=1000) freq scf=(MaxCycle=2
 000,NoVarAcc,NoIncFock) scrf=(iefpcm,read,solvent=water)
 ----------------------------------------------------------------------

 ------------
 71.n.pdb.xyz
 ------------
 Symbolic Z-matrix:
 Charge =  0 Multiplicity = 1

 SCF Done:  E(RB3LYP) =  -883.871121641     A.U. after   12 cycles
 SCF Done:  E(RB3LYP) =  -883.876603012     A.U. after   10 cycles
 SCF Done:  E(RB3LYP) =  -883.878235858     A.U. after   10 cycles
 SCF Done:  E(RB3LYP) =  -883.879682592     A.U. after   10 cycles
 SCF Done:  E(RB3LYP) =  -883.879947102     A.U. after   10 cycles
 SCF Done:  E(RB3LYP) =  -883.879673691     A.U. after   10 cycles
 SCF Done:  E(RB3LYP) =  -883.880672332     A.U. after   10 cycles
 SCF Done:  E(RB3LYP) =  -883.880993041     A.U. after    9 cycles
 SCF Done:  E(RB3LYP) =  -883.881111176     A.U. after    9 cycles
 SCF Done:  E(RB3LYP) =  -883.881370292     A.U. after   10 cycles
 SCF Done:  E(RB3LYP) =  -883.883478200     A.U. after    9 cycles
 SCF Done:  E(RB3LYP) =  -883.883531931     A.U. after    9 cycles
 SCF Done:  E(RB3LYP) =  -883.883473180     A.U. after    9 cycles
 SCF Done:  E(RB3LYP) =  -883.883489906     A.U. after    8 cycles
 SCF Done:  E(RB3LYP) =  -883.883492932     A.U. after    8 cycles
 SCF Done:  E(RB3LYP) =  -883.883493113     A.U. after    7 cycles
 SCF Done:  E(RB3LYP) =  -883.883493218     A.U. after    7 cycles
 Optimization completed.
    -- Stationary point found.
 Normal termination of Gaussian 16 at Tue Mar  1 09:59:21 2022.

 --------------------------------------------------------------------
 #P Geom=AllCheck Guess=TCheck SCRF=Check GenChk RB3LYP/6-31G(d) Freq
 --------------------------------------------------------------------

 Structure from the checkpoint file:  "71.n.pdb.xyz.mst.wat.chk"
 ------------
 71.n.pdb.xyz
 ------------
 Charge =  0 Multiplicity = 1

 SCF Done:  E(RB3LYP) =  -883.883493218     A.U. after    1 cycles

  Exact polarizability: 312.971 -22.095 340.864  36.789   7.037 187.551
 Approx polarizability: 337.653 -22.869 361.778  42.826  11.564 213.426

                      1                      2                      3
                      A                      A                      A
 Frequencies --     22.4731                35.7247                52.6451
 Red. masses --      4.0630                 4.0793                 4.4122
 Frc consts  --      0.0012                 0.0031                 0.0072
 IR Inten    --      0.6571                 0.4767                 1.2196

                      4                      5                      6
                      A                      A                      A
 Frequencies --     62.1309                89.2585                98.1591
 Red. masses --      1.8715                 3.3207                 3.6474
 Frc consts  --      0.0043                 0.0156                 0.0207
 IR Inten    --      4.4961                 2.4818                 0.9630

                      7                      8                      9
                      A                      A                      A
 Frequencies --    120.3569               131.8789               156.2448
 Red. masses --      3.4761                 2.7709                 2.9502
 Frc consts  --      0.0297                 0.0284                 0.0424
 IR Inten    --      2.2335                 2.1624                 0.7875

                     10                     11                     12
                      A                      A                      A
 Frequencies --    168.9108               189.5240               239.2995
 Red. masses --      2.7366                 4.6180                 1.2058
 Frc consts  --      0.0460                 0.0977                 0.0407
 IR Inten    --      1.3520                 0.2030                 2.8812

                     13                     14                     15
                      A                      A                      A
 Frequencies --    252.1383               261.3701               291.3722
 Red. masses --      4.3748                 3.5058                 2.9252
 Frc consts  --      0.1639                 0.1411                 0.1463
 IR Inten    --      1.9590                 4.7590                 2.4384

                     16                     17                     18
                      A                      A                      A
 Frequencies --    309.6619               320.7956               332.2693
 Red. masses --      3.6427                 3.8845                 2.9570
 Frc consts  --      0.2058                 0.2355                 0.1923
 IR Inten    --      4.3732                 3.9608                 8.6354

                     19                     20                     21
                      A                      A                      A
 Frequencies --    357.1479               384.2592               396.6553
 Red. masses --      3.9614                 1.3380                 3.1551
 Frc consts  --      0.2977                 0.1164                 0.2925
 IR Inten    --     21.9654               134.1280                36.0595

                     22                     23                     24
                      A                      A                      A
 Frequencies --    432.0666               457.2824               478.0329
 Red. masses --      3.2440                 3.1365                 3.4326
 Frc consts  --      0.3568                 0.3864                 0.4622
 IR Inten    --      9.7502                 6.7308                17.7063

                     25                     26                     27
                      A                      A                      A
 Frequencies --    484.1716               498.5344               518.7449
 Red. masses --      3.2230                 3.7485                 3.9671
 Frc consts  --      0.4452                 0.5489                 0.6290
 IR Inten    --     13.2502                 2.5602                 3.8210

                     28                     29                     30
                      A                      A                      A
 Frequencies --    567.2728               575.0422               586.9194
 Red. masses --      3.9891                 3.5103                 4.7247
 Frc consts  --      0.7563                 0.6839                 0.9589
 IR Inten    --      3.5833                 3.8265                 9.5126

                     31                     32                     33
                      A                      A                      A
 Frequencies --    630.6114               642.2526               687.6145
 Red. masses --      4.4747                 3.3230                 5.0954
 Frc consts  --      1.0484                 0.8076                 1.4194
 IR Inten    --     20.2368                 0.0363                 0.9323

                     34                     35                     36
                      A                      A                      A
 Frequencies --    725.8383               742.4030               757.1441
 Red. masses --      3.5015                 4.8270                 1.2768
 Frc consts  --      1.0869                 1.5675                 0.4313
 IR Inten    --      1.5043                 6.1765                 9.4946

                     37                     38                     39
                      A                      A                      A
 Frequencies --    765.6687               768.0550               793.0766
 Red. masses --      1.3474                 2.9634                 3.4196
 Frc consts  --      0.4654                 1.0300                 1.2672
 IR Inten    --     61.1664                15.4879                17.3863

                     40                     41                     42
                      A                      A                      A
 Frequencies --    824.5823               836.8701               854.8959
 Red. masses --      1.2819                 1.5594                 1.8057
 Frc consts  --      0.5135                 0.6434                 0.7776
 IR Inten    --    138.1652                19.6946                64.1939

                     43                     44                     45
                      A                      A                      A
 Frequencies --    864.3254               869.6303               917.3414
 Red. masses --      1.4115                 1.4335                 1.7895
 Frc consts  --      0.6213                 0.6387                 0.8872
 IR Inten    --     25.5909                 8.9427                 8.9258

                     46                     47                     48
                      A                      A                      A
 Frequencies --    923.8867               946.8843               954.2070
 Red. masses --      2.3632                 1.4182                 1.8313
 Frc consts  --      1.1885                 0.7492                 0.9824
 IR Inten    --     31.3962                 8.2456                 1.6536

                     49                     50                     51
                      A                      A                      A
 Frequencies --    957.2797               974.0390               977.1302
 Red. masses --      1.7127                 2.2600                 1.2502
 Frc consts  --      0.9247                 1.2633                 0.7033
 IR Inten    --      5.6256                 2.2905                 0.0271

                     52                     53                     54
                      A                      A                      A
 Frequencies --   1004.2935              1034.9899              1050.9209
 Red. masses --      2.4708                 2.8912                 2.7229
 Frc consts  --      1.4683                 1.8247                 1.7718
 IR Inten    --      9.5502                14.8327                 9.7915

                     55                     56                     57
                      A                      A                      A
 Frequencies --   1057.2761              1073.1510              1092.5358
 Red. masses --      2.5117                 3.9138                 2.2663
 Frc consts  --      1.6542                 2.6556                 1.5938
 IR Inten    --      3.4872                29.5252                38.4151

                     58                     59                     60
                      A                      A                      A
 Frequencies --   1111.3918              1134.2896              1144.1842
 Red. masses --      1.5406                 1.7472                 3.1775
 Frc consts  --      1.1212                 1.3245                 2.4509
 IR Inten    --      9.4236                18.9367                72.7763

                     61                     62                     63
                      A                      A                      A
 Frequencies --   1153.4052              1178.8256              1187.9400
 Red. masses --      1.9041                 1.5493                 1.2875
 Frc consts  --      1.4924                 1.2685                 1.0705
 IR Inten    --     31.6823                21.8054                 5.4075

                     64                     65                     66
                      A                      A                      A
 Frequencies --   1189.7109              1192.6951              1196.1027
 Red. masses --      1.3868                 1.6992                 1.4212
 Frc consts  --      1.1565                 1.4241                 1.1980
 IR Inten    --     13.5977               166.0377                74.2527

                     67                     68                     69
                      A                      A                      A
 Frequencies --   1207.5039              1221.0553              1240.2671
 Red. masses --      1.3821                 1.9427                 1.6273
 Frc consts  --      1.1873                 1.7066                 1.4749
 IR Inten    --    198.4173                 0.6245               115.5031

                     70                     71                     72
                      A                      A                      A
 Frequencies --   1254.4608              1261.7449              1280.9680
 Red. masses --      1.6388                 1.8929                 1.6309
 Frc consts  --      1.5195                 1.7755                 1.5767
 IR Inten    --     42.8494               130.7054               118.1511

                     73                     74                     75
                      A                      A                      A
 Frequencies --   1307.0032              1312.7687              1320.2420
 Red. masses --      1.4087                 1.3589                 1.6506
 Frc consts  --      1.4178                 1.3798                 1.6951
 IR Inten    --      2.3359                32.1420                 8.6667

                     76                     77                     78
                      A                      A                      A
 Frequencies --   1334.9261              1338.4204              1344.4615
 Red. masses --      1.2129                 2.3116                 5.5058
 Frc consts  --      1.2735                 2.4398                 5.8636
 IR Inten    --     35.6322                14.1190                34.4489

                     79                     80                     81
                      A                      A                      A
 Frequencies --   1366.2707              1375.7113              1400.3967
 Red. masses --      1.9332                 2.1880                 1.3654
 Frc consts  --      2.1261                 2.4398                 1.5776
 IR Inten    --      6.7073                22.3441                13.0429

                     82                     83                     84
                      A                      A                      A
 Frequencies --   1401.4617              1408.9771              1425.4292
 Red. masses --      1.4106                 1.9872                 1.4567
 Frc consts  --      1.6324                 2.3243                 1.7439
 IR Inten    --     11.2780                55.3903                87.4304

                     85                     86                     87
                      A                      A                      A
 Frequencies --   1472.5509              1482.1347              1491.6854
 Red. masses --      1.1841                 2.4410                 2.0812
 Frc consts  --      1.5128                 3.1593                 2.7284
 IR Inten    --      2.2694                70.8483               162.4568

                     88                     89                     90
                      A                      A                      A
 Frequencies --   1497.4098              1500.5962              1504.5957
 Red. masses --      1.1873                 1.1408                 1.1412
 Frc consts  --      1.5686                 1.5136                 1.5221
 IR Inten    --      0.4095                30.1693                16.6526

                     91                     92                     93
                      A                      A                      A
 Frequencies --   1505.7297              1508.5200              1518.9999
 Red. masses --      1.2290                 1.1053                 1.1093
 Frc consts  --      1.6418                 1.4819                 1.5081
 IR Inten    --     33.0441                 6.6541                10.4834

                     94                     95                     96
                      A                      A                      A
 Frequencies --   1537.0333              1538.0873              1548.5267
 Red. masses --      1.3892                 1.4784                 1.1517
 Frc consts  --      1.9337                 2.0607                 1.6271
 IR Inten    --    173.5358               198.6371                18.0643

                     97                     98                     99
                      A                      A                      A
 Frequencies --   1552.2470              1622.9987              1645.2596
 Red. masses --      2.5433                 5.9424                 6.3594
 Frc consts  --      3.6105                 9.2224                10.1423
 IR Inten    --    102.7428                29.2552                10.4133

                    100                    101                    102
                      A                      A                      A
 Frequencies --   1653.9646              1664.5995              2945.7508
 Red. masses --      5.5291                 6.1474                 1.0726
 Frc consts  --      8.9116                10.0360                 5.4839
 IR Inten    --     40.7087               101.9464               138.7073

                    103                    104                    105
                      A                      A                      A
 Frequencies --   2973.6110              3036.0272              3046.0477
 Red. masses --      1.0596                 1.0667                 1.0624
 Frc consts  --      5.5203                 5.7932                 5.8081
 IR Inten    --    152.7142                53.6433                45.0386

                    106                    107                    108
                      A                      A                      A
 Frequencies --   3049.9127              3062.5231              3063.7320
 Red. masses --      1.0842                 1.0632                 1.0653
 Frc consts  --      5.9421                 5.8755                 5.8914
 IR Inten    --     32.5845                32.6935               123.1558

                    109                    110                    111
                      A                      A                      A
 Frequencies --   3083.0420              3084.0222              3096.7883
 Red. masses --      1.0947                 1.0748                 1.0995
 Frc consts  --      6.1308                 6.0232                 6.2124
 IR Inten    --     82.5971                71.4049                 5.9485

                    112                    113                    114
                      A                      A                      A
 Frequencies --   3112.9490              3118.9149              3132.3776
 Red. masses --      1.1021                 1.1020                 1.1021
 Frc consts  --      6.2921                 6.3160                 6.3714
 IR Inten    --     54.1671               122.3784                58.7646

                    115                    116                    117
                      A                      A                      A
 Frequencies --   3184.1175              3193.6985              3199.8601
 Red. masses --      1.0875                 1.0903                 1.0881
 Frc consts  --      6.4961                 6.5519                 6.5643
 IR Inten    --     26.7716                31.4902                24.3418

                    118                    119                    120
                      A                      A                      A
 Frequencies --   3217.9722              3218.9514              3243.2023
 Red. masses --      1.0896                 1.0955                 1.0907
 Frc consts  --      6.6481                 6.6878                 6.7593
 IR Inten    --     19.7813                54.4406                19.3775

                    121                    122                    123
                      A                      A                      A
 Frequencies --   3245.6982              3486.3568              3725.5177
 Red. masses --      1.0919                 1.0743                 1.0662
 Frc consts  --      6.7775                 7.6938                 8.7189
 IR Inten    --     20.5029                 1.4842               196.1357

 - Thermochemistry -
 -------------------
 Temperature   298.150 Kelvin.  Pressure   1.00000 Atm.
 Atom     1 has atomic number  6 and mass  12.00000

 Molecular mass:   282.17321 amu.
 Principal axes and moments of inertia in atomic units:
                           1         2         3
     Eigenvalues --  5881.275317751.20549**********
           X            0.99809   0.06167   0.00198
           Y           -0.06166   0.99810  -0.00199
           Z           -0.00210   0.00186   1.00000
 This molecule is an asymmetric top.
 Rotational symmetry number  1.
 Warning -- assumption of classical behavior for rotation
           may cause significant error
 Rotational temperatures (Kelvin)      0.01473     0.01117     0.00685
 Rotational constants (GHZ):           0.30686     0.23283     0.14266
 Zero-point vibrational energy     972886.2 (Joules/Mol)
                                  232.52538 (Kcal/Mol)
 Warning -- explicit consideration of  30 degrees of freedom as
           vibrations may cause significant error
 Vibrational temperatures:     32.33    51.40    75.74    89.39   128.42
          (Kelvin)            141.23   173.17   189.74   224.80   243.02
                              272.68   344.30   362.77   376.05   419.22
                              445.53   461.55   478.06   513.86   552.86
                              570.70   621.65   657.93   687.78   696.61
                              717.28   746.36   816.18   827.36   844.45
                              907.31   924.06   989.32  1044.32  1068.15
                             1089.36  1101.63  1105.06  1141.06  1186.39
                             1204.07  1230.00  1243.57  1251.20  1319.85
                             1329.27  1362.36  1372.89  1377.31  1401.42
                             1405.87  1444.95  1489.12  1512.04  1521.18
                             1544.02  1571.92  1599.04  1631.99  1646.23
                             1659.49  1696.07  1709.18  1711.73  1716.02
                             1720.93  1737.33  1756.83  1784.47  1804.89
                             1815.37  1843.03  1880.49  1888.78  1899.53
                             1920.66  1925.69  1934.38  1965.76  1979.34
                             2014.86  2016.39  2027.20  2050.87  2118.67
                             2132.46  2146.20  2154.44  2159.02  2164.78
                             2166.41  2170.42  2185.50  2211.45  2212.96
                             2227.98  2233.34  2335.13  2367.16  2379.69
                             2394.99  4238.28  4278.36  4368.17  4382.58
                             4388.14  4406.29  4408.03  4435.81  4437.22
                             4455.59  4478.84  4487.42  4506.79  4581.23
                             4595.02  4603.88  4629.94  4631.35  4666.24
                             4669.84  5016.09  5360.19

 Zero-point correction=                           0.370553 (Hartree/Particle)
 Thermal correction to Energy=                    0.389708
 Thermal correction to Enthalpy=                  0.390652
 Thermal correction to Gibbs Free Energy=         0.322138
 Sum of electronic and zero-point Energies=           -883.512940
 Sum of electronic and thermal Energies=              -883.493785
 Sum of electronic and thermal Enthalpies=            -883.492841
 Sum of electronic and thermal Free Energies=         -883.561355

                     E (Thermal)             CV                S
                      KCal/Mol        Cal/Mol-Kelvin    Cal/Mol-Kelvin
 Total                  244.546             75.384            144.201
 Electronic               0.000              0.000              0.000
 Translational            0.889              2.981             42.810
 Rotational               0.889              2.981             34.710
 Vibrational            242.768             69.423             66.681
 Vibration     1          0.593              1.985              6.403
 Vibration     2          0.594              1.982              5.483
 Vibration     3          0.596              1.977              4.715
 Vibration     4          0.597              1.972              4.388
 Vibration     5          0.602              1.957              3.676
 Vibration     6          0.604              1.950              3.491
 Vibration     7          0.609              1.932              3.095
 Vibration     8          0.612              1.921              2.918
 Vibration     9          0.620              1.896              2.595
 Vibration    10          0.625              1.881              2.448
 Vibration    11          0.633              1.854              2.232
 Vibration    12          0.657              1.780              1.808
 Vibration    13          0.664              1.759              1.716
 Vibration    14          0.669              1.743              1.653
 Vibration    15          0.687              1.690              1.466
 Vibration    16          0.699              1.655              1.364
 Vibration    17          0.706              1.634              1.306
 Vibration    18          0.714              1.611              1.249
 Vibration    19          0.732              1.561              1.134
 Vibration    20          0.753              1.504              1.022
 Vibration    21          0.763              1.477              0.975
 Vibration    22          0.793              1.400              0.852
 Vibration    23          0.815              1.345              0.774
 Vibration    24          0.835              1.299              0.715
 Vibration    25          0.840              1.285              0.699
 Vibration    26          0.854              1.253              0.662
 Vibration    27          0.874              1.208              0.613
 Vibration    28          0.923              1.102              0.510
 Vibration    29          0.931              1.085              0.495
 Vibration    30          0.944              1.060              0.473

                           ! Non-Optimized Parameters !
 Normal termination of Gaussian 16 at Tue Mar  1 10:56:05 2022.

 ------------------------------------------
 #p b3lyp/6-31G(d) geom=allcheck guess=read
 ------------------------------------------

 Structure from the checkpoint file:  "71.n.pdb.xyz.mst.wat.chk"
 ------------
 71.n.pdb.xyz
 ------------
 Charge =  0 Multiplicity = 1

 SCF Done:  E(RB3LYP) =  -883.865903911     A.U. after   11 cycles
 Normal termination of Gaussian 16 at Tue Mar  1 10:59:34 2022.
 Gaussian 16:  ES64L-G16RevA.03 25-Dec-2016

 ----------------------------------------------------------------------
 #p b3lyp/6-31G(d) scrf=(iefpcm,read,solvent=water) geom=allcheck guess
 =read
 ----------------------------------------------------------------------

 Structure from the checkpoint file:  "71.n.pdb.xyz.mst.wat.chk"
 ------------
 71.n.pdb.xyz
 ------------
 Charge =  0 Multiplicity = 1

                         Standard orientation:
 ---------------------------------------------------------------------
 Center     Atomic      Atomic             Coordinates (Angstroms)
 Number     Number       Type             X           Y           Z
 ---------------------------------------------------------------------
      1          6           0       -6.067238   -1.605136    0.392872
      2          7           0       -4.785276   -1.446142   -0.291451
      3          6           0       -3.771243   -0.845467    0.575932
      4          6           0       -2.448834   -0.644789   -0.164716
      5          6           0       -1.359289   -0.095316    0.772442
      6          7           0       -0.073049    0.296194    0.171275
      7          6           0        0.166432    1.660894   -0.099399
      8          6           0       -0.926459    2.440869   -0.540932
      9          6           0       -0.807118    3.797150   -0.821417
     10          6           0        0.429222    4.427562   -0.682563
     11          6           0        1.509414    3.673874   -0.233229
     12          6           0        1.416765    2.309286    0.080779
     13          6           0        2.675884    1.672302    0.643768
     14          6           0        2.469223    0.428854    1.523720
     15          6           0        2.107145   -0.748798    0.664883
     16          6           0        0.890734   -0.736928   -0.038512
     17          6           0        0.613635   -1.793281   -0.919816
     18          6           0        1.502200   -2.851568   -1.088547
     19          6           0        2.709949   -2.859373   -0.383981
     20          8           0        3.553646   -3.912788   -0.585410
     21          6           0        3.008409   -1.800177    0.478970
     22          1           0       -6.814318   -1.983882   -0.309964
     23          1           0       -5.962780   -2.336621    1.201264
     24          1           0       -6.454991   -0.672229    0.838100
     25          1           0       -4.927121   -0.824932   -1.087699
     26          1           0       -3.616820   -1.520388    1.428303
     27          1           0       -4.104710    0.118669    1.003445
     28          1           0       -2.136030   -1.601709   -0.591554
     29          1           0       -2.600455    0.042878   -1.005161
     30          1           0       -1.749825    0.787539    1.288192
     31          1           0       -1.146349   -0.846367    1.542463
     32          1           0       -1.884808    1.958252   -0.685020
     33          1           0       -1.676828    4.350687   -1.161824
     34          1           0        0.547546    5.483300   -0.902573
     35          1           0        2.470624    4.158377   -0.082686
     36          1           0        3.198071    2.441659    1.222705
     37          1           0        3.358800    1.398820   -0.171468
     38          1           0        1.688429    0.626419    2.266871
     39          1           0        3.394065    0.216973    2.067580
     40          1           0       -0.306630   -1.781015   -1.490079
     41          1           0        1.277839   -3.663885   -1.771321
     42          1           0        4.362462   -3.788894   -0.058204
     43          1           0        3.949954   -1.791472    1.021618
 ---------------------------------------------------------------------

 SCF Done:  E(RB3LYP) =  -883.882592764     A.U. after   11 cycles

 The electronic state is 1-A.
 Alpha  occ. eigenvalues --  -19.17404 -14.34595 -14.31371 -10.24875 -10.22807
 Alpha  occ. eigenvalues --  -10.21600 -10.21528 -10.20235 -10.19555 -10.19543
 Alpha  occ. eigenvalues --  -10.19236 -10.18991 -10.18717 -10.18570 -10.18538
 Alpha  occ. eigenvalues --  -10.18505 -10.18457 -10.18324 -10.18100 -10.17948
 Alpha  occ. eigenvalues --  -10.17836  -1.05375  -0.94428  -0.89505  -0.85299
 Alpha  occ. eigenvalues --   -0.84228  -0.79704  -0.77133  -0.75510  -0.74792
 Alpha  occ. eigenvalues --   -0.72324  -0.70488  -0.67463  -0.64686  -0.63331
 Alpha  occ. eigenvalues --   -0.61792  -0.59694  -0.59354  -0.57938  -0.56543
 Alpha  occ. eigenvalues --   -0.53414  -0.51788  -0.49976  -0.48551  -0.47483
 Alpha  occ. eigenvalues --   -0.47119  -0.45720  -0.45247  -0.44448  -0.43722
 Alpha  occ. eigenvalues --   -0.43035  -0.42287  -0.41682  -0.41301  -0.41014
 Alpha  occ. eigenvalues --   -0.40403  -0.39299  -0.38749  -0.38165  -0.37828
 Alpha  occ. eigenvalues --   -0.37172  -0.36421  -0.35738  -0.35306  -0.34779
 Alpha  occ. eigenvalues --   -0.33762  -0.33283  -0.32858  -0.32483  -0.32018
 Alpha  occ. eigenvalues --   -0.27815  -0.24806  -0.24129  -0.22399  -0.22286
 Alpha  occ. eigenvalues --   -0.18897
 Alpha virt. eigenvalues --   -0.00575   0.00190   0.00768   0.01297   0.08668
 Alpha virt. eigenvalues --    0.09695   0.09791   0.10749   0.11111   0.11513
 Alpha virt. eigenvalues --    0.12562   0.13477   0.13801   0.14475   0.14654

 Mulliken charges:
               1
     1  C   -0.305237
     2  N   -0.596252
     3  C   -0.119137
     4  C   -0.282714
     5  C   -0.150152
     6  N   -0.589345
     7  C    0.242733
     8  C   -0.192889
     9  C   -0.168046
    10  C   -0.155327
    11  C   -0.229518
    12  C    0.145331
    13  C   -0.346143
    14  C   -0.351081
    15  C    0.153564
    16  C    0.195061
    17  C   -0.173349
    18  C   -0.204364
    19  C    0.363639
    20  O   -0.684616
    21  C   -0.301769
    22  H    0.153010
    23  H    0.151483
    24  H    0.127364
    25  H    0.333961
    26  H    0.141913
    27  H    0.119085
    28  H    0.147160
    29  H    0.152141
    30  H    0.158255
    31  H    0.154978
    32  H    0.146711
    33  H    0.143494
    34  H    0.139326
    35  H    0.137936
    36  H    0.158517
    37  H    0.159812
    38  H    0.159212
    39  H    0.154412
    40  H    0.154438
    41  H    0.146295
    42  H    0.460441
    43  H    0.149665
 Sum of Mulliken charges =  -0.00000

 Dipole moment (field-independent basis, Debye):
    X=              0.8243    Y=              0.7627    Z=              2.0547  Tot=              2.3415
 Quadrupole moment (field-independent basis, Debye-Ang):
   XX=            -96.9567   YY=           -130.9808   ZZ=           -125.0822
   XY=             -7.9561   XZ=              8.6333   YZ=             -4.5012

 Normal termination of Gaussian 16 at Tue Mar  1 11:03:53 2022.
