 Gaussian 16, Revision A.03,

 ----------------------------------------------------------------------
 #p b3lyp/6-31G(d) opt=(MaxStep=10,MaxCycles=1000) freq scf=(MaxCycle=2
 000,NoVarAcc,NoIncFock) scrf=(iefpcm,read,solvent=water)
 ----------------------------------------------------------------------

 ------------
 72.n.pdb.xyz
 ------------
 Symbolic Z-matrix:
 Charge =  0 Multiplicity = 1

 SCF Done:  E(RB3LYP) =  -823.492303160     A.U. after   13 cycles
 SCF Done:  E(RB3LYP) =  -823.496697066     A.U. after   10 cycles
 SCF Done:  E(RB3LYP) =  -823.496246024     A.U. after   10 cycles
 SCF Done:  E(RB3LYP) =  -823.498977182     A.U. after   10 cycles
 SCF Done:  E(RB3LYP) =  -823.499466078     A.U. after   10 cycles
 SCF Done:  E(RB3LYP) =  -823.499546216     A.U. after    9 cycles
 SCF Done:  E(RB3LYP) =  -823.499589323     A.U. after    9 cycles
 SCF Done:  E(RB3LYP) =  -823.499603963     A.U. after    8 cycles
 SCF Done:  E(RB3LYP) =  -823.499604693     A.U. after    7 cycles
 Optimization completed.
    -- Stationary point found.
 Normal termination of Gaussian 16 at Tue Mar  1 16:13:37 2022.

 --------------------------------------------------------------------
 #P Geom=AllCheck Guess=TCheck SCRF=Check GenChk RB3LYP/6-31G(d) Freq
 --------------------------------------------------------------------

 Structure from the checkpoint file:  "72.n.pdb.xyz.mst.wat.chk"
 ------------
 72.n.pdb.xyz
 ------------
 Charge =  0 Multiplicity = 1

 SCF Done:  E(RB3LYP) =  -823.499604693     A.U. after    1 cycles

  Exact polarizability: 316.878  -4.515 285.583  20.074   1.903 190.016
 Approx polarizability: 341.175  -0.807 301.651  27.538   3.776 224.497

                      1                      2                      3
                      A                      A                      A
 Frequencies --     51.4395                65.6572                91.4790
 Red. masses --      3.5748                 4.9118                 3.4233
 Frc consts  --      0.0056                 0.0125                 0.0169
 IR Inten    --      0.9935                 0.2066                 1.9148

                      4                      5                      6
                      A                      A                      A
 Frequencies --    100.1041               151.3463               172.5375
 Red. masses --      4.1001                 3.4193                 3.7414
 Frc consts  --      0.0242                 0.0461                 0.0656
 IR Inten    --      6.2856                 1.4374                 0.3748

                      7                      8                      9
                      A                      A                      A
 Frequencies --    191.3800               235.4827               251.4179
 Red. masses --      3.6356                 1.8899                 1.8178
 Frc consts  --      0.0785                 0.0617                 0.0677
 IR Inten    --      6.3451                 2.1355                 2.7930

                     10                     11                     12
                      A                      A                      A
 Frequencies --    278.0932               298.4483               304.5085
 Red. masses --      2.4531                 2.7021                 3.6110
 Frc consts  --      0.1118                 0.1418                 0.1973
 IR Inten    --      2.1963                 2.3367                 9.6037

                     13                     14                     15
                      A                      A                      A
 Frequencies --    313.4717               334.2319               360.0798
 Red. masses --      3.7750                 4.7632                 3.1771
 Frc consts  --      0.2186                 0.3135                 0.2427
 IR Inten    --      3.5483                 5.1707                 2.8241

                     16                     17                     18
                      A                      A                      A
 Frequencies --    412.0463               424.7771               446.1277
 Red. masses --      2.0196                 2.5531                 3.8298
 Frc consts  --      0.2020                 0.2714                 0.4491
 IR Inten    --      4.6654                 2.6065                 2.9878

                     19                     20                     21
                      A                      A                      A
 Frequencies --    476.1881               482.6632               518.7519
 Red. masses --      3.7482                 4.0589                 3.3591
 Frc consts  --      0.5008                 0.5571                 0.5326
 IR Inten    --      3.0855                 3.0182                 1.4904

                     22                     23                     24
                      A                      A                      A
 Frequencies --    526.9821               543.5776               569.2502
 Red. masses --      3.2951                 3.6435                 3.4031
 Frc consts  --      0.5391                 0.6343                 0.6497
 IR Inten    --      0.6950                 3.3449                 6.6847

                     25                     26                     27
                      A                      A                      A
 Frequencies --    600.4694               627.8027               634.6302
 Red. masses --      4.9329                 3.6535                 4.7531
 Frc consts  --      1.0479                 0.8484                 1.1279
 IR Inten    --      6.2217                 4.7666                 7.0901

                     28                     29                     30
                      A                      A                      A
 Frequencies --    654.2955               714.8720               761.7716
 Red. masses --      4.6112                 3.4974                 4.1349
 Frc consts  --      1.1631                 1.0530                 1.4137
 IR Inten    --      2.2319                36.0264                 4.1635

                     31                     32                     33
                      A                      A                      A
 Frequencies --    776.3139               787.2900               799.7805
 Red. masses --      1.7390                 3.9194                 1.4828
 Frc consts  --      0.6175                 1.4313                 0.5588
 IR Inten    --     53.7134                17.6097                35.8663

                     34                     35                     36
                      A                      A                      A
 Frequencies --    823.2302               834.4027               857.9552
 Red. masses --      2.6573                 2.3891                 3.6883
 Frc consts  --      1.0610                 0.9800                 1.5996
 IR Inten    --      2.7265                11.7908                 7.8197

                     37                     38                     39
                      A                      A                      A
 Frequencies --    867.5582               901.4166               938.3582
 Red. masses --      2.7055                 1.6904                 2.0856
 Frc consts  --      1.1998                 0.8093                 1.0820
 IR Inten    --      0.7509                 1.0625                17.0355

                     40                     41                     42
                      A                      A                      A
 Frequencies --    952.3138               963.7986               969.3459
 Red. masses --      1.7005                 1.5721                 2.5662
 Frc consts  --      0.9086                 0.8604                 1.4207
 IR Inten    --      5.5723                19.3791                27.3054

                     43                     44                     45
                      A                      A                      A
 Frequencies --    972.8078               986.5813               997.9178
 Red. masses --      1.5159                 1.3757                 1.2694
 Frc consts  --      0.8452                 0.7889                 0.7448
 IR Inten    --      7.5134                 4.2897                 0.4424

                     46                     47                     48
                      A                      A                      A
 Frequencies --   1017.9354              1047.7586              1075.3345
 Red. masses --      2.8768                 2.2410                 2.4604
 Frc consts  --      1.7563                 1.4495                 1.6763
 IR Inten    --      9.0678                72.5380                10.6725

                     49                     50                     51
                      A                      A                      A
 Frequencies --   1082.8154              1090.5067              1099.4689
 Red. masses --      2.8740                 2.0248                 1.9242
 Frc consts  --      1.9854                 1.4187                 1.3705
 IR Inten    --      2.4962                 7.1111                 5.2747

                     52                     53                     54
                      A                      A                      A
 Frequencies --   1103.1371              1135.3801              1137.5774
 Red. masses --      2.0253                 1.9769                 1.8048
 Frc consts  --      1.4521                 1.5014                 1.3761
 IR Inten    --     19.6779                 0.3464                43.4389

                     55                     56                     57
                      A                      A                      A
 Frequencies --   1157.7667              1168.6255              1172.7240
 Red. masses --      2.8921                 2.4602                 1.5711
 Frc consts  --      2.2841                 1.9795                 1.2730
 IR Inten    --     87.4404                28.8910                36.8724

                     58                     59                     60
                      A                      A                      A
 Frequencies --   1189.9935              1191.8359              1210.3044
 Red. masses --      1.1465                 1.3077                 1.8850
 Frc consts  --      0.9565                 1.0945                 1.6268
 IR Inten    --      5.6966                18.0325                 3.9796

                     61                     62                     63
                      A                      A                      A
 Frequencies --   1212.4195              1235.9871              1252.1892
 Red. masses --      1.8043                 1.5303                 1.8444
 Frc consts  --      1.5627                 1.3774                 1.7039
 IR Inten    --     40.6156                 8.6492               191.9507

                     64                     65                     66
                      A                      A                      A
 Frequencies --   1258.9655              1299.4753              1302.0498
 Red. masses --      2.1044                 2.2148                 1.5671
 Frc consts  --      1.9652                 2.2036                 1.5654
 IR Inten    --     10.1443                86.3572                61.2968

                     67                     68                     69
                      A                      A                      A
 Frequencies --   1315.0354              1320.8741              1327.6121
 Red. masses --      3.2142                 1.7494                 1.7911
 Frc consts  --      3.2749                 1.7983                 1.8600
 IR Inten    --      9.7060                59.2812                33.0899

                     70                     71                     72
                      A                      A                      A
 Frequencies --   1334.0100              1347.2836              1359.3403
 Red. masses --      1.4096                 1.7758                 1.7443
 Frc consts  --      1.4780                 1.8992                 1.8990
 IR Inten    --     18.9555                80.2037                 6.6657

                     73                     74                     75
                      A                      A                      A
 Frequencies --   1371.6462              1398.6998              1402.2666
 Red. masses --      2.2521                 1.4452                 1.5698
 Frc consts  --      2.4965                 1.6658                 1.8187
 IR Inten    --     22.4158               106.5730                30.2012

                     76                     77                     78
                      A                      A                      A
 Frequencies --   1413.5415              1432.4777              1471.4315
 Red. masses --      1.4819                 1.6264                 1.1848
 Frc consts  --      1.7446                 1.9663                 1.5114
 IR Inten    --     50.2930                 6.9466                 1.3123

                     79                     80                     81
                      A                      A                      A
 Frequencies --   1478.5499              1497.6658              1499.8704
 Red. masses --      2.3604                 2.2197                 1.8753
 Frc consts  --      3.0403                 2.9335                 2.4855
 IR Inten    --    341.1259                 2.0683                 0.0949

                     82                     83                     84
                      A                      A                      A
 Frequencies --   1502.9785              1505.1583              1509.3507
 Red. masses --      1.1493                 1.0836                 1.1601
 Frc consts  --      1.5296                 1.4463                 1.5571
 IR Inten    --      4.5707                11.0821                11.6231

                     85                     86                     87
                      A                      A                      A
 Frequencies --   1513.2292              1517.7016              1528.6778
 Red. masses --      1.1325                 1.1310                 1.0579
 Frc consts  --      1.5279                 1.5349                 1.4565
 IR Inten    --     28.4168                 6.1803                 8.9895

                     88                     89                     90
                      A                      A                      A
 Frequencies --   1540.8252              1619.5247              1640.0097
 Red. masses --      2.3694                 6.4140                 5.9841
 Frc consts  --      3.3143                 9.9118                 9.4829
 IR Inten    --     19.5572                89.3332                 0.5176

                     91                     92                     93
                      A                      A                      A
 Frequencies --   1644.1423              1662.8317              2945.8061
 Red. masses --      5.3600                 5.8872                 1.0722
 Frc consts  --      8.5367                 9.5909                 5.4820
 IR Inten    --    106.8410                 5.6963                76.4767

                     94                     95                     96
                      A                      A                      A
 Frequencies --   2951.7383              2970.3577              2976.0651
 Red. masses --      1.0701                 1.0600                 1.0808
 Frc consts  --      5.4935                 5.5104                 5.6398
 IR Inten    --    104.2166               193.9528               133.1963

                     97                     98                     99
                      A                      A                      A
 Frequencies --   2992.0247              3061.6483              3094.7053
 Red. masses --      1.0732                 1.0653                 1.0763
 Frc consts  --      5.6608                 5.8835                 6.0733
 IR Inten    --    126.6215                43.7278                30.5055

                    100                    101                    102
                      A                      A                      A
 Frequencies --   3095.9711              3106.5268              3121.9579
 Red. masses --      1.0849                 1.0892                 1.0982
 Frc consts  --      6.1270                 6.1932                 6.3065
 IR Inten    --    105.1971                56.6334                32.7232

                    103                    104                    105
                      A                      A                      A
 Frequencies --   3140.1828              3177.6158              3182.4895
 Red. masses --      1.1047                 1.0894                 1.0894
 Frc consts  --      6.4183                 6.4807                 6.5008
 IR Inten    --     49.8476                14.6431                56.9923

                    106                    107                    108
                      A                      A                      A
 Frequencies --   3197.2826              3201.1942              3206.7383
 Red. masses --      1.0867                 1.0897                 1.0896
 Frc consts  --      6.5453                 6.5794                 6.6017
 IR Inten    --      7.1238                26.1360                26.7554

                    109                    110                    111
                      A                      A                      A
 Frequencies --   3221.1485              3237.6445              3238.8746
 Red. masses --      1.0953                 1.0955                 1.0921
 Frc consts  --      6.6958                 6.7661                 6.7499
 IR Inten    --     51.5767                33.7142                23.0641

 - Thermochemistry -
 -------------------
 Temperature   298.150 Kelvin.  Pressure   1.00000 Atm.
 Atom     1 has atomic number  6 and mass  12.00000

 Molecular mass:   265.15790 amu.
 Principal axes and moments of inertia in atomic units:
                           1         2         3
     Eigenvalues --  4279.862075192.373158591.92234
           X            0.99961   0.02685   0.00713
           Y           -0.02683   0.99963  -0.00341
           Z           -0.00722   0.00322   0.99997
 This molecule is an asymmetric top.
 Rotational symmetry number  1.
 Warning -- assumption of classical behavior for rotation
           may cause significant error
 Rotational temperatures (Kelvin)      0.02024     0.01668     0.01008
 Rotational constants (GHZ):           0.42168     0.34758     0.21005
 Zero-point vibrational energy     877699.6 (Joules/Mol)
                                  209.77523 (Kcal/Mol)
 Warning -- explicit consideration of  25 degrees of freedom as
           vibrations may cause significant error
 Vibrational temperatures:     74.01    94.47   131.62   144.03   217.75
          (Kelvin)            248.24   275.35   338.81   361.73   400.11
                              429.40   438.12   451.02   480.89   518.07
                              592.84   611.16   641.88   685.13   694.44
                              746.37   758.21   782.09   819.02   863.94
                              903.27   913.09   941.39  1028.54  1096.02
                             1116.94  1132.73  1150.71  1184.44  1200.52
                             1234.41  1248.22  1296.94  1350.09  1370.17
                             1386.69  1394.67  1399.65  1419.47  1435.78
                             1464.58  1507.49  1547.17  1557.93  1569.00
                             1581.89  1587.17  1633.56  1636.72  1665.77
                             1681.39  1687.29  1712.14  1714.79  1741.36
                             1744.40  1778.31  1801.62  1811.37  1869.66
                             1873.36  1892.04  1900.44  1910.14  1919.34
                             1938.44  1955.79  1973.49  2012.42  2017.55
                             2033.77  2061.02  2117.06  2127.30  2154.81
                             2157.98  2162.45  2165.59  2171.62  2177.20
                             2183.63  2199.43  2216.90  2330.13  2359.61
                             2365.55  2392.44  4238.36  4246.89  4273.68
                             4281.89  4304.86  4405.03  4452.59  4454.41
                             4469.60  4491.80  4518.02  4571.88  4578.89
                             4600.18  4605.80  4613.78  4634.51  4658.25
                             4660.02

 Zero-point correction=                           0.334298 (Hartree/Particle)
 Thermal correction to Energy=                    0.349816
 Thermal correction to Enthalpy=                  0.350760
 Thermal correction to Gibbs Free Energy=         0.292142
 Sum of electronic and zero-point Energies=           -823.165307
 Sum of electronic and thermal Energies=              -823.149789
 Sum of electronic and thermal Enthalpies=            -823.148845
 Sum of electronic and thermal Free Energies=         -823.207463

                     E (Thermal)             CV                S
                      KCal/Mol        Cal/Mol-Kelvin    Cal/Mol-Kelvin
 Total                  219.513             64.705            123.372
 Electronic               0.000              0.000              0.000
 Translational            0.889              2.981             42.625
 Rotational               0.889              2.981             33.612
 Vibrational            217.735             58.744             47.136
 Vibration     1          0.596              1.977              4.761
 Vibration     2          0.597              1.971              4.279
 Vibration     3          0.602              1.955              3.628
 Vibration     4          0.604              1.949              3.452
 Vibration     5          0.619              1.901              2.655
 Vibration     6          0.626              1.876              2.408
 Vibration     7          0.634              1.852              2.214
 Vibration     8          0.655              1.786              1.837
 Vibration     9          0.663              1.760              1.721
 Vibration    10          0.679              1.714              1.545
 Vibration    11          0.692              1.677              1.426
 Vibration    12          0.695              1.665              1.392
 Vibration    13          0.701              1.648              1.344
 Vibration    14          0.716              1.607              1.240
 Vibration    15          0.735              1.555              1.122
 Vibration    16          0.776              1.444              0.919
 Vibration    17          0.787              1.416              0.876
 Vibration    18          0.805              1.369              0.808
 Vibration    19          0.833              1.303              0.720
 Vibration    20          0.839              1.289              0.703
 Vibration    21          0.874              1.208              0.613
 Vibration    22          0.882              1.190              0.594
 Vibration    23          0.899              1.154              0.558
 Vibration    24          0.925              1.098              0.506
 Vibration    25          0.959              1.031              0.449

                           ! Non-Optimized Parameters !
 Normal termination of Gaussian 16 at Tue Mar  1 17:09:25 2022.

 ------------------------------------------
 #p b3lyp/6-31G(d) geom=allcheck guess=read
 ------------------------------------------

 Structure from the checkpoint file:  "72.n.pdb.xyz.mst.wat.chk"
 ------------
 72.n.pdb.xyz
 ------------
 Charge =  0 Multiplicity = 1

 SCF Done:  E(RB3LYP) =  -823.491354388     A.U. after   11 cycles
 Normal termination of Gaussian 16 at Tue Mar  1 17:13:01 2022.
 Gaussian 16:  ES64L-G16RevA.03 25-Dec-2016

 ----------------------------------------------------------------------
 #p b3lyp/6-31G(d) scrf=(iefpcm,read,solvent=water) geom=allcheck guess
 =read
 ----------------------------------------------------------------------

 Structure from the checkpoint file:  "72.n.pdb.xyz.mst.wat.chk"
 ------------
 72.n.pdb.xyz
 ------------
 Charge =  0 Multiplicity = 1

                         Standard orientation:
 ---------------------------------------------------------------------
 Center     Atomic      Atomic             Coordinates (Angstroms)
 Number     Number       Type             X           Y           Z
 ---------------------------------------------------------------------
      1          6           0       -4.701310   -0.084731    0.074176
      2          7           0       -3.325282   -0.408471    0.429957
      3          6           0       -2.912391   -1.690223   -0.132175
      4          6           0       -1.498519   -2.015108    0.315670
      5          7           0       -0.546277   -0.953012   -0.062873
      6          6           0       -0.969090    0.372840    0.448580
      7          6           0       -2.407855    0.627286   -0.028086
      8          6           0       -0.045752    1.521881    0.060500
      9          6           0       -0.440789    2.555709   -0.796525
     10          6           0        0.403678    3.637451   -1.058135
     11          6           0        1.660253    3.701706   -0.458925
     12          6           0        2.069529    2.671959    0.389909
     13          6           0        1.229386    1.588124    0.651594
     14          6           0        1.693241    0.418164    1.482267
     15          6           0        1.871247   -0.792260    0.589514
     16          6           0        3.140633   -1.340464    0.412969
     17          6           0        3.332583   -2.457974   -0.398191
     18          6           0        2.209091   -2.988577   -1.020387
     19          7           0        0.983430   -2.468770   -0.897078
     20          6           0        0.795496   -1.387539   -0.116191
     21          1           0       -4.983956    0.867303    0.532218
     22          1           0       -5.367978   -0.865509    0.451385
     23          1           0       -4.854424    0.000134   -1.016524
     24          1           0       -3.592185   -2.471465    0.222659
     25          1           0       -2.959058   -1.678635   -1.237188
     26          1           0       -1.163233   -2.941369   -0.145950
     27          1           0       -1.493410   -2.148080    1.409669
     28          1           0       -1.014310    0.338645    1.549670
     29          1           0       -2.741939    1.589093    0.370869
     30          1           0       -2.416194    0.698421   -1.131067
     31          1           0       -1.417245    2.532908   -1.264008
     32          1           0        0.073440    4.427130   -1.724951
     33          1           0        2.319353    4.541706   -0.652916
     34          1           0        3.051000    2.702900    0.853775
     35          1           0        2.646391    0.649938    1.963242
     36          1           0        0.974255    0.201095    2.280485
     37          1           0        3.978013   -0.893424    0.940891
     38          1           0        4.311192   -2.902275   -0.534053
     39          1           0        2.290609   -3.866206   -1.657633
 ---------------------------------------------------------------------

 SCF Done:  E(RB3LYP) =  -823.499003998     A.U. after   11 cycles

 The electronic state is 1-A.
 Alpha  occ. eigenvalues --  -14.34670 -14.32851 -14.32688 -10.25857 -10.23021
 Alpha  occ. eigenvalues --  -10.22034 -10.20915 -10.20825 -10.20516 -10.20384
 Alpha  occ. eigenvalues --  -10.20155 -10.20035 -10.19984 -10.19963 -10.19536
 Alpha  occ. eigenvalues --  -10.19195 -10.19184 -10.19016 -10.19005 -10.18847
 Alpha  occ. eigenvalues --   -0.97147  -0.93515  -0.89990  -0.86472  -0.81746
 Alpha  occ. eigenvalues --   -0.78851  -0.77846  -0.75604  -0.73678  -0.71510
 Alpha  occ. eigenvalues --   -0.68680  -0.65683  -0.65053  -0.61376  -0.61013
 Alpha  occ. eigenvalues --   -0.59643  -0.57947  -0.55990  -0.52619  -0.50713
 Alpha  occ. eigenvalues --   -0.49865  -0.48315  -0.47625  -0.46627  -0.46080
 Alpha  occ. eigenvalues --   -0.45434  -0.45015  -0.43839  -0.43505  -0.43057
 Alpha  occ. eigenvalues --   -0.41705  -0.40695  -0.40089  -0.39494  -0.38854
 Alpha  occ. eigenvalues --   -0.38105  -0.37792  -0.37055  -0.36364  -0.35494
 Alpha  occ. eigenvalues --   -0.35177  -0.34008  -0.33544  -0.32807  -0.28847
 Alpha  occ. eigenvalues --   -0.27251  -0.26122  -0.25372  -0.24572  -0.22279
 Alpha  occ. eigenvalues --   -0.20616
 Alpha virt. eigenvalues --   -0.02243  -0.01353  -0.00373   0.00377   0.09086
 Alpha virt. eigenvalues --    0.09699   0.09877   0.10934   0.12745   0.13000
 Alpha virt. eigenvalues --    0.13308   0.14432   0.14902   0.15499   0.15675

 Mulliken charges:
               1
     1  C   -0.301431
     2  N   -0.425624
     3  C   -0.128955
     4  C   -0.135109
     5  N   -0.510311
     6  C   -0.028519
     7  C   -0.141000
     8  C    0.102372
     9  C   -0.201071
    10  C   -0.159857
    11  C   -0.141751
    12  C   -0.208584
    13  C    0.121418
    14  C   -0.451450
    15  C    0.138728
    16  C   -0.176516
    17  C   -0.164276
    18  C    0.023308
    19  N   -0.530702
    20  C    0.425931
    21  H    0.158873
    22  H    0.158399
    23  H    0.129225
    24  H    0.153594
    25  H    0.122768
    26  H    0.175074
    27  H    0.136462
    28  H    0.149321
    29  H    0.159949
    30  H    0.129453
    31  H    0.153308
    32  H    0.150021
    33  H    0.150665
    34  H    0.147515
    35  H    0.171653
    36  H    0.180503
    37  H    0.159399
    38  H    0.154068
    39  H    0.153148
 Sum of Mulliken charges =  -0.00000

 Dipole moment (field-independent basis, Debye):
    X=              0.6678    Y=              1.5973    Z=              1.5026  Tot=              2.2924
 Quadrupole moment (field-independent basis, Debye-Ang):
   XX=            -98.7206   YY=           -112.1688   ZZ=           -119.1063
   XY=             -0.5370   XZ=              5.3285   YZ=             -3.3270

 Normal termination of Gaussian 16 at Tue Mar  1 17:17:18 2022.
