 Gaussian 16, Revision A.03,

 ----------------------------------------------------------------------
 #p b3lyp/6-31G(d) opt=(MaxStep=10,MaxCycles=1000) freq scf=(MaxCycle=2
 000,NoVarAcc,NoIncFock) scrf=(iefpcm,read,solvent=water)
 ----------------------------------------------------------------------

 ------------
 73.n.pdb.xyz
 ------------
 Symbolic Z-matrix:
 Charge =  0 Multiplicity = 1

 SCF Done:  E(RB3LYP) =  -1262.46401883     A.U. after   14 cycles
 SCF Done:  E(RB3LYP) =  -1262.46782357     A.U. after   11 cycles
 SCF Done:  E(RB3LYP) =  -1262.46496830     A.U. after   11 cycles
 SCF Done:  E(RB3LYP) =  -1262.46861505     A.U. after   11 cycles
 SCF Done:  E(RB3LYP) =  -1262.46945280     A.U. after   10 cycles
 SCF Done:  E(RB3LYP) =  -1262.46951437     A.U. after   10 cycles
 SCF Done:  E(RB3LYP) =  -1262.46954281     A.U. after    9 cycles
 SCF Done:  E(RB3LYP) =  -1262.46955203     A.U. after    8 cycles
 SCF Done:  E(RB3LYP) =  -1262.46955074     A.U. after    8 cycles
 SCF Done:  E(RB3LYP) =  -1262.46955396     A.U. after    8 cycles
 SCF Done:  E(RB3LYP) =  -1262.46955811     A.U. after    7 cycles
 SCF Done:  E(RB3LYP) =  -1262.46956646     A.U. after    7 cycles
 SCF Done:  E(RB3LYP) =  -1262.46957225     A.U. after    7 cycles
 SCF Done:  E(RB3LYP) =  -1262.46957372     A.U. after    6 cycles
 Optimization completed.
    -- Stationary point found.
 Normal termination of Gaussian 16 at Tue Mar  1 18:37:33 2022.

 --------------------------------------------------------------------
 #P Geom=AllCheck Guess=TCheck SCRF=Check GenChk RB3LYP/6-31G(d) Freq
 --------------------------------------------------------------------

 Structure from the checkpoint file:  "73.n.pdb.xyz.mst.wat.chk"
 ------------
 73.n.pdb.xyz
 ------------
 Charge =  0 Multiplicity = 1

 SCF Done:  E(RB3LYP) =  -1262.46957372     A.U. after    1 cycles

  Exact polarizability: 315.006  15.077 312.936 -12.339  41.360 177.933
 Approx polarizability: 340.966  19.491 361.966 -16.469  52.904 209.506

                      1                      2                      3
                      A                      A                      A
 Frequencies --     37.1981                47.1818                71.2713
 Red. masses --      3.9519                 5.7377                 9.9125
 Frc consts  --      0.0032                 0.0075                 0.0297
 IR Inten    --      0.4801                 1.2136                 3.9261

                      4                      5                      6
                      A                      A                      A
 Frequencies --     72.1211               111.3278               116.2625
 Red. masses --      5.0745                 4.5557                 2.4166
 Frc consts  --      0.0156                 0.0333                 0.0192
 IR Inten    --      1.4112                 4.5938                 2.0488

                      7                      8                      9
                      A                      A                      A
 Frequencies --    148.2019               178.7480               183.1339
 Red. masses --      1.4063                 5.8683                 4.6353
 Frc consts  --      0.0182                 0.1105                 0.0916
 IR Inten    --      0.6054                 2.8251                 0.0821

                     10                     11                     12
                      A                      A                      A
 Frequencies --    221.1615               261.5126               293.6735
 Red. masses --      5.4597                 5.9623                 5.0978
 Frc consts  --      0.1573                 0.2402                 0.2590
 IR Inten    --      2.2134                 4.0980                 5.0449

                     13                     14                     15
                      A                      A                      A
 Frequencies --    300.6781               334.6250               344.3299
 Red. masses --      5.3231                 6.3204                 4.8858
 Frc consts  --      0.2835                 0.4170                 0.3413
 IR Inten    --      7.6013                 2.2959                 6.3921

                     16                     17                     18
                      A                      A                      A
 Frequencies --    389.3870               396.6142               417.3450
 Red. masses --      3.9044                 4.9139                 2.9550
 Frc consts  --      0.3488                 0.4554                 0.3033
 IR Inten    --     13.5971                 6.9651                 0.2186

                     19                     20                     21
                      A                      A                      A
 Frequencies --    433.1950               461.0128               477.6612
 Red. masses --      5.0184                 5.7097                 5.1138
 Frc consts  --      0.5549                 0.7150                 0.6874
 IR Inten    --      8.5750                 7.9220                 4.7425

                     22                     23                     24
                      A                      A                      A
 Frequencies --    516.0690               528.4130               558.3829
 Red. masses --      3.2295                 4.3152                 3.7055
 Frc consts  --      0.5068                 0.7099                 0.6807
 IR Inten    --      3.9605                22.1010                17.9800

                     25                     26                     27
                      A                      A                      A
 Frequencies --    589.9248               631.5022               639.0010
 Red. masses --      4.9682                 6.3729                 5.3211
 Frc consts  --      1.0187                 1.4974                 1.2801
 IR Inten    --     18.4835                 0.7116                13.1446

                     28                     29                     30
                      A                      A                      A
 Frequencies --    668.8812               698.0483               703.4822
 Red. masses --      5.3182                 6.5759                 4.9593
 Frc consts  --      1.4019                 1.8879                 1.4460
 IR Inten    --     15.9329                 1.1508                 2.5653

                     31                     32                     33
                      A                      A                      A
 Frequencies --    711.7522               752.2290               779.2091
 Red. masses --      1.8052                 3.7106                 4.9927
 Frc consts  --      0.5388                 1.2371                 1.7861
 IR Inten    --     49.9300                40.1069                 3.7202

                     34                     35                     36
                      A                      A                      A
 Frequencies --    802.8701               822.0988               845.2477
 Red. masses --      2.4730                 6.9684                 1.4834
 Frc consts  --      0.9392                 2.7748                 0.6244
 IR Inten    --     13.4349               112.7015                42.9162

                     37                     38                     39
                      A                      A                      A
 Frequencies --    865.2729               906.7093               933.9753
 Red. masses --      1.2526                 1.4570                 2.6639
 Frc consts  --      0.5526                 0.7057                 1.3691
 IR Inten    --      3.9886                19.3125                28.2952

                     40                     41                     42
                      A                      A                      A
 Frequencies --    947.3508               960.7404               974.3203
 Red. masses --      1.5402                 3.7480                 1.3110
 Frc consts  --      0.8144                 2.0383                 0.7333
 IR Inten    --      2.8668                37.7142                 1.6616

                     43                     44                     45
                      A                      A                      A
 Frequencies --    985.1178              1005.1788              1012.2394
 Red. masses --      1.3605                 2.7323                 1.2854
 Frc consts  --      0.7779                 1.6265                 0.7760
 IR Inten    --      2.8685                16.7749                 0.2924

                     46                     47                     48
                      A                      A                      A
 Frequencies --   1017.1120              1044.2449              1054.8088
 Red. masses --      6.0117                 5.3380                 2.1804
 Frc consts  --      3.6643                 3.4295                 1.4294
 IR Inten    --      1.9199                18.0017                17.3738

                     49                     50                     51
                      A                      A                      A
 Frequencies --   1096.7754              1107.9081              1121.5145
 Red. masses --      3.2949                 1.6068                 2.0991
 Frc consts  --      2.3352                 1.1620                 1.5555
 IR Inten    --     60.9844                 3.0413                34.2072

                     52                     53                     54
                      A                      A                      A
 Frequencies --   1154.1399              1156.6480              1170.0339
 Red. masses --      1.6990                 1.5989                 1.7088
 Frc consts  --      1.3334                 1.2603                 1.3782
 IR Inten    --     65.2132                30.7549                12.5177

                     55                     56                     57
                      A                      A                      A
 Frequencies --   1188.8894              1191.8107              1203.4138
 Red. masses --      1.0964                 1.4999                 1.4273
 Frc consts  --      0.9131                 1.2552                 1.2179
 IR Inten    --      0.3956                 8.0576                16.8713

                     58                     59                     60
                      A                      A                      A
 Frequencies --   1243.7286              1287.1410              1311.9242
 Red. masses --      1.3553                 1.5524                 2.7682
 Frc consts  --      1.2352                 1.5153                 2.8071
 IR Inten    --     54.3092                35.8939               105.3810

                     61                     62                     63
                      A                      A                      A
 Frequencies --   1331.4426              1345.5642              1351.4816
 Red. masses --      2.8345                 2.2001                 1.4901
 Frc consts  --      2.9606                 2.3469                 1.6036
 IR Inten    --     38.5194                24.0869                34.6564

                     64                     65                     66
                      A                      A                      A
 Frequencies --   1361.6198              1365.5638              1376.9243
 Red. masses --      5.5063                 3.9814                 3.3555
 Frc consts  --      6.0148                 4.3743                 3.7483
 IR Inten    --     20.7384                28.6949               208.6520

                     67                     68                     69
                      A                      A                      A
 Frequencies --   1438.7274              1465.5884              1491.7539
 Red. masses --      4.3861                 1.1871                 2.2268
 Frc consts  --      5.3492                 1.5024                 2.9196
 IR Inten    --    133.0150                12.0931                15.8312

                     70                     71                     72
                      A                      A                      A
 Frequencies --   1510.5112              1513.8645              1521.7891
 Red. masses --      1.1161                 1.0933                 2.3008
 Frc consts  --      1.5004                 1.4762                 3.1393
 IR Inten    --     53.0913                14.5046               187.2326

                     73                     74                     75
                      A                      A                      A
 Frequencies --   1538.3271              1542.6100              1609.7511
 Red. masses --      2.2513                 1.1016                 7.1977
 Frc consts  --      3.1389                 1.5445                10.9891
 IR Inten    --      2.9089                14.4428                50.6458

                     76                     77                     78
                      A                      A                      A
 Frequencies --   1633.1467              1645.7242              1657.0060
 Red. masses --      5.6679                 6.5675                 6.0395
 Frc consts  --      8.9069                10.4800                 9.7700
 IR Inten    --     17.4849                13.2833                48.6548

                     79                     80                     81
                      A                      A                      A
 Frequencies --   1673.1169              1740.9822              3043.0298
 Red. masses --      8.9263                10.3423                 1.0685
 Frc consts  --     14.7222                18.4695                 5.8297
 IR Inten    --    126.5530              1010.3997                38.6340

                     82                     83                     84
                      A                      A                      A
 Frequencies --   3081.8028              3162.3033              3163.8082
 Red. masses --      1.0425                 1.0955                 1.0946
 Frc consts  --      5.8337                 6.4546                 6.4553
 IR Inten    --     53.0831                49.1001                23.9870

                     85                     86                     87
                      A                      A                      A
 Frequencies --   3203.8394              3209.3655              3212.5003
 Red. masses --      1.0859                 1.1049                 1.0893
 Frc consts  --      6.5675                 6.7051                 6.6231
 IR Inten    --      1.3719                 5.4968                17.5557

                     88                     89                     90
                      A                      A                      A
 Frequencies --   3222.6382              3232.0984              3237.4362
 Red. masses --      1.0930                 1.0946                 1.0891
 Frc consts  --      6.6882                 6.7368                 6.7256
 IR Inten    --     49.3682                29.6276                 3.1137

                     91                     92                     93
                      A                      A                      A
 Frequencies --   3238.4907              3250.4257              3252.2931
 Red. masses --      1.0934                 1.0942                 1.0920
 Frc consts  --      6.7567                 6.8111                 6.8055
 IR Inten    --     11.2830                 7.9957                 0.9931

 - Thermochemistry -
 -------------------
 Temperature   298.150 Kelvin.  Pressure   1.00000 Atm.
 Atom     1 has atomic number  6 and mass  12.00000

 Molecular mass:   284.07164 amu.
 Principal axes and moments of inertia in atomic units:
                           1         2         3
     Eigenvalues --  5510.736726225.85152**********
           X            0.99980   0.01864  -0.00744
           Y           -0.01857   0.99979   0.00843
           Z            0.00759  -0.00829   0.99994
 This molecule is an asymmetric top.
 Rotational symmetry number  1.
 Warning -- assumption of classical behavior for rotation
           may cause significant error
 Rotational temperatures (Kelvin)      0.01572     0.01391     0.00837
 Rotational constants (GHZ):           0.32750     0.28988     0.17439
 Zero-point vibrational energy     676549.7 (Joules/Mol)
                                  161.69926 (Kcal/Mol)
 Warning -- explicit consideration of  25 degrees of freedom as
           vibrations may cause significant error
 Vibrational temperatures:     53.52    67.88   102.54   103.77   160.18
          (Kelvin)            167.28   213.23   257.18   263.49   318.20
                              376.26   422.53   432.61   481.45   495.41
                              560.24   570.64   600.47   623.27   663.29
                              687.25   742.51   760.27   803.39   848.77
                              908.59   919.38   962.37  1004.34  1012.15
                             1024.05  1082.29  1121.11  1155.15  1182.82
                             1216.12  1244.93  1304.55  1343.78  1363.03
                             1382.29  1401.83  1417.36  1446.23  1456.39
                             1463.40  1502.44  1517.63  1578.02  1594.03
                             1613.61  1660.55  1664.16  1683.42  1710.55
                             1714.75  1731.44  1789.45  1851.91  1887.57
                             1915.65  1935.97  1944.48  1959.07  1964.74
                             1981.09  2070.01  2108.65  2146.30  2173.29
                             2178.11  2189.52  2213.31  2219.47  2316.07
                             2349.73  2367.83  2384.06  2407.24  2504.89
                             4378.24  4434.03  4549.85  4552.01  4609.61
                             4617.56  4622.07  4636.66  4650.27  4657.95
                             4659.47  4676.64  4679.32

 Zero-point correction=                           0.257684 (Hartree/Particle)
 Thermal correction to Energy=                    0.274063
 Thermal correction to Enthalpy=                  0.275008
 Thermal correction to Gibbs Free Energy=         0.212859
 Sum of electronic and zero-point Energies=          -1262.211890
 Sum of electronic and thermal Energies=             -1262.195510
 Sum of electronic and thermal Enthalpies=           -1262.194566
 Sum of electronic and thermal Free Energies=        -1262.256714

                     E (Thermal)             CV                S
                      KCal/Mol        Cal/Mol-Kelvin    Cal/Mol-Kelvin
 Total                  171.977             64.124            130.802
 Electronic               0.000              0.000              0.000
 Translational            0.889              2.981             42.830
 Rotational               0.889              2.981             34.228
 Vibrational            170.200             58.162             53.743
 Vibration     1          0.594              1.982              5.403
 Vibration     2          0.595              1.979              4.932
 Vibration     3          0.598              1.968              4.118
 Vibration     4          0.598              1.967              4.095
 Vibration     5          0.607              1.940              3.246
 Vibration     6          0.608              1.936              3.162
 Vibration     7          0.618              1.905              2.695
 Vibration     8          0.629              1.868              2.341
 Vibration     9          0.631              1.863              2.296
 Vibration    10          0.648              1.809              1.950
 Vibration    11          0.669              1.743              1.652
 Vibration    12          0.688              1.686              1.453
 Vibration    13          0.693              1.672              1.413
 Vibration    14          0.716              1.606              1.238
 Vibration    15          0.723              1.587              1.192
 Vibration    16          0.757              1.493              1.002
 Vibration    17          0.763              1.477              0.975
 Vibration    18          0.780              1.433              0.901
 Vibration    19          0.794              1.398              0.848
 Vibration    20          0.819              1.337              0.763
 Vibration    21          0.834              1.300              0.716
 Vibration    22          0.871              1.214              0.619
 Vibration    23          0.883              1.187              0.591
 Vibration    24          0.914              1.121              0.527
 Vibration    25          0.947              1.053              0.467

 Optimization completed.
    -- Stationary point found.
 Normal termination of Gaussian 16 at Tue Mar  1 19:17:21 2022.

 ------------------------------------------
 #p b3lyp/6-31G(d) geom=allcheck guess=read
 ------------------------------------------

 Structure from the checkpoint file:  "73.n.pdb.xyz.mst.wat.chk"
 ------------
 73.n.pdb.xyz
 ------------
 Charge =  0 Multiplicity = 1

 SCF Done:  E(RB3LYP) =  -1262.45854432     A.U. after   12 cycles
 Normal termination of Gaussian 16 at Tue Mar  1 19:20:14 2022.
 Gaussian 16:  ES64L-G16RevA.03 25-Dec-2016

 ----------------------------------------------------------------------
 #p b3lyp/6-31G(d) scrf=(iefpcm,read,solvent=water) geom=allcheck guess
 =read
 ----------------------------------------------------------------------

 Structure from the checkpoint file:  "73.n.pdb.xyz.mst.wat.chk"
 ------------
 73.n.pdb.xyz
 ------------
 Charge =  0 Multiplicity = 1

                         Standard orientation:
 ---------------------------------------------------------------------
 Center     Atomic      Atomic             Coordinates (Angstroms)
 Number     Number       Type             X           Y           Z
 ---------------------------------------------------------------------
      1          6           0       -3.027014   -1.623383    1.681578
      2          7           0       -2.131972   -1.403691    0.539537
      3          6           0       -1.712830   -0.083405    0.246886
      4          6           0       -2.603393    0.970818    0.505578
      5          6           0       -2.248407    2.291706    0.269929
      6          6           0       -0.977323    2.569088   -0.231518
      7         17           0       -0.516074    4.234617   -0.556918
      8          6           0       -0.068004    1.551686   -0.470677
      9          6           0       -0.414445    0.211706   -0.231537
     10          6           0        0.596301   -0.847685   -0.488728
     11          7           0        0.324644   -1.964034   -1.071519
     12          6           0       -1.045845   -2.174288   -1.519905
     13          6           0       -1.936058   -2.466265   -0.318945
     14          8           0       -2.424857   -3.571479   -0.106701
     15          6           0        2.004577   -0.618550   -0.060794
     16          6           0        2.316425    0.189811    1.043107
     17          6           0        3.640272    0.346594    1.454217
     18          6           0        4.669338   -0.295206    0.763784
     19          6           0        4.367976   -1.101209   -0.338182
     20          6           0        3.047502   -1.263988   -0.743436
     21          1           0       -2.735826   -0.962593    2.497483
     22          1           0       -4.073320   -1.439001    1.418707
     23          1           0       -2.925171   -2.661915    1.988596
     24          1           0       -3.593390    0.749358    0.883388
     25          1           0       -2.952275    3.092148    0.462568
     26          1           0        0.919410    1.786310   -0.845391
     27          1           0       -1.083950   -3.046803   -2.170828
     28          1           0       -1.439724   -1.303648   -2.061526
     29          1           0        1.520746    0.684613    1.587884
     30          1           0        3.865334    0.967871    2.314585
     31          1           0        5.699489   -0.167777    1.079695
     32          1           0        5.164164   -1.598585   -0.882972
     33          1           0        2.803496   -1.887135   -1.595248
 ---------------------------------------------------------------------

 SCF Done:  E(RB3LYP) =  -1262.46883139     A.U. after   11 cycles

 The electronic state is 1-A.
 Alpha  occ. eigenvalues -- -101.55846 -19.13302 -14.38848 -14.33870 -10.30239
 Alpha  occ. eigenvalues --  -10.26155 -10.25661 -10.25131 -10.22349 -10.22129
 Alpha  occ. eigenvalues --  -10.21876 -10.21669 -10.21622 -10.21108 -10.20628
 Alpha  occ. eigenvalues --  -10.19867 -10.19738 -10.19559 -10.19552 -10.19492
 Alpha  occ. eigenvalues --   -9.47470  -7.23861  -7.22901  -7.22869  -1.05237
 Alpha  occ. eigenvalues --   -0.96700  -0.93525  -0.89939  -0.86081  -0.84460
 Alpha  occ. eigenvalues --   -0.79000  -0.76863  -0.75081  -0.75055  -0.73789
 Alpha  occ. eigenvalues --   -0.69529  -0.66113  -0.63024  -0.61679  -0.60971
 Alpha  occ. eigenvalues --   -0.57938  -0.55667  -0.53080  -0.51297  -0.50192
 Alpha  occ. eigenvalues --   -0.49622  -0.48968  -0.47101  -0.46678  -0.45661
 Alpha  occ. eigenvalues --   -0.45026  -0.44146  -0.43945  -0.42663  -0.42447
 Alpha  occ. eigenvalues --   -0.40939  -0.40681  -0.40353  -0.39071  -0.38581
 Alpha  occ. eigenvalues --   -0.37960  -0.37648  -0.35456  -0.34810  -0.34743
 Alpha  occ. eigenvalues --   -0.32923  -0.32357  -0.29230  -0.28024  -0.27145
 Alpha  occ. eigenvalues --   -0.26495  -0.25765  -0.24385  -0.23294
 Alpha virt. eigenvalues --   -0.06170  -0.02921  -0.02437  -0.00545   0.01373
 Alpha virt. eigenvalues --    0.02170   0.04608   0.10020   0.10723   0.12628
 Alpha virt. eigenvalues --    0.12693   0.13922   0.14359   0.14728   0.15184

 Mulliken charges:
               1
     1  C   -0.335253
     2  N   -0.510252
     3  C    0.273322
     4  C   -0.167094
     5  C   -0.139422
     6  C   -0.068653
     7  Cl  -0.032053
     8  C   -0.191981
     9  C    0.074841
    10  C    0.220961
    11  N   -0.465356
    12  C   -0.251810
    13  C    0.584622
    14  O   -0.554275
    15  C    0.097032
    16  C   -0.185986
    17  C   -0.151371
    18  C   -0.137312
    19  C   -0.150857
    20  C   -0.171945
    21  H    0.185544
    22  H    0.185054
    23  H    0.193406
    24  H    0.182283
    25  H    0.184694
    26  H    0.185424
    27  H    0.177040
    28  H    0.187137
    29  H    0.159178
    30  H    0.156679
    31  H    0.156630
    32  H    0.155978
    33  H    0.153794
 Sum of Mulliken charges =  -0.00000

 Dipole moment (field-independent basis, Debye):
    X=             -0.6688    Y=              4.2560    Z=              1.9102  Tot=              4.7128
 Quadrupole moment (field-independent basis, Debye-Ang):
   XX=           -102.0615   YY=           -148.1330   ZZ=           -114.7097
   XY=             -9.3780   XZ=             -3.3706   YZ=              2.5894

 Normal termination of Gaussian 16 at Tue Mar  1 19:23:30 2022.
