 Gaussian 16, Revision A.03,

 ----------------------------------------------------------------------
 #p b3lyp/6-31G(d) opt=(MaxStep=10,MaxCycles=1000) freq scf=(MaxCycle=2
 000,NoVarAcc,NoIncFock) scrf=(iefpcm,read,solvent=water)
 ----------------------------------------------------------------------

 ------------
 74.n.pdb.xyz
 ------------
 Symbolic Z-matrix:
 Charge =  0 Multiplicity = 1

 SCF Done:  E(RB3LYP) =  -902.542786955     A.U. after   13 cycles
 SCF Done:  E(RB3LYP) =  -902.546609936     A.U. after   10 cycles
 SCF Done:  E(RB3LYP) =  -902.546310484     A.U. after   10 cycles
 SCF Done:  E(RB3LYP) =  -902.548198119     A.U. after   10 cycles
 SCF Done:  E(RB3LYP) =  -902.548868560     A.U. after   10 cycles
 SCF Done:  E(RB3LYP) =  -902.549107419     A.U. after   10 cycles
 SCF Done:  E(RB3LYP) =  -902.549260836     A.U. after    9 cycles
 SCF Done:  E(RB3LYP) =  -902.549196851     A.U. after    8 cycles
 SCF Done:  E(RB3LYP) =  -902.549248554     A.U. after    8 cycles
 SCF Done:  E(RB3LYP) =  -902.549257357     A.U. after    8 cycles
 SCF Done:  E(RB3LYP) =  -902.549344881     A.U. after    7 cycles
 SCF Done:  E(RB3LYP) =  -902.549333626     A.U. after    7 cycles
 SCF Done:  E(RB3LYP) =  -902.549348422     A.U. after    7 cycles
 SCF Done:  E(RB3LYP) =  -902.549338397     A.U. after    7 cycles
 SCF Done:  E(RB3LYP) =  -902.549346123     A.U. after    6 cycles
 SCF Done:  E(RB3LYP) =  -902.549341770     A.U. after    6 cycles
 SCF Done:  E(RB3LYP) =  -902.549341453     A.U. after    6 cycles
 Optimization completed.
    -- Stationary point found.
 Normal termination of Gaussian 16 at Tue Mar  1 21:52:51 2022.

 --------------------------------------------------------------------
 #P Geom=AllCheck Guess=TCheck SCRF=Check GenChk RB3LYP/6-31G(d) Freq
 --------------------------------------------------------------------

 Structure from the checkpoint file:  "74.n.pdb.xyz.mst.wat.chk"
 ------------
 74.n.pdb.xyz
 ------------
 Charge =  0 Multiplicity = 1

 SCF Done:  E(RB3LYP) =  -902.549341453     A.U. after    1 cycles

  Exact polarizability: 317.168  -5.525 302.965  -7.820   2.972 171.814
 Approx polarizability: 339.180  -9.712 334.022 -10.730   5.379 199.141

                      1                      2                      3
                      A                      A                      A
 Frequencies --     48.4268                69.5180                90.8078
 Red. masses --      4.4028                 4.1067                 4.1662
 Frc consts  --      0.0061                 0.0117                 0.0202
 IR Inten    --      1.1499                 0.1822                 0.6403

                      4                      5                      6
                      A                      A                      A
 Frequencies --    112.5407               138.6312               171.3257
 Red. masses --      3.6063                 1.0725                 3.5778
 Frc consts  --      0.0269                 0.0121                 0.0619
 IR Inten    --      0.7865                 0.2546                 0.2593

                      7                      8                      9
                      A                      A                      A
 Frequencies --    186.4642               214.2683               229.3433
 Red. masses --      4.0013                 3.6523                 3.9588
 Frc consts  --      0.0820                 0.0988                 0.1227
 IR Inten    --      2.0373                 0.8125                 2.6452

                     10                     11                     12
                      A                      A                      A
 Frequencies --    247.2935               275.9595               288.3977
 Red. masses --      3.6944                 3.6866                 3.1705
 Frc consts  --      0.1331                 0.1654                 0.1554
 IR Inten    --      0.4084                 6.4626                 9.8115

                     13                     14                     15
                      A                      A                      A
 Frequencies --    296.1036               312.5417               339.0254
 Red. masses --      4.1836                 3.6449                 3.9467
 Frc consts  --      0.2161                 0.2098                 0.2673
 IR Inten    --      6.1928                 2.7965                12.1277

                     16                     17                     18
                      A                      A                      A
 Frequencies --    353.2036               378.4505               384.3977
 Red. masses --      4.0981                 1.7335                 1.8709
 Frc consts  --      0.3012                 0.1463                 0.1629
 IR Inten    --      4.7444                33.1047               135.4250

                     19                     20                     21
                      A                      A                      A
 Frequencies --    412.6326               445.4395               490.9352
 Red. masses --      2.2047                 3.8473                 3.7845
 Frc consts  --      0.2212                 0.4498                 0.5374
 IR Inten    --     71.9142                 8.4145                 3.5362

                     22                     23                     24
                      A                      A                      A
 Frequencies --    507.6466               518.1622               526.1653
 Red. masses --      4.0696                 2.9842                 3.4097
 Frc consts  --      0.6179                 0.4721                 0.5562
 IR Inten    --      6.1544                 3.8930                 3.4364

                     25                     26                     27
                      A                      A                      A
 Frequencies --    556.4846               566.0053               574.2322
 Red. masses --      4.2353                 4.1317                 4.4368
 Frc consts  --      0.7727                 0.7799                 0.8620
 IR Inten    --      7.2060                 3.8750                 4.8494

                     28                     29                     30
                      A                      A                      A
 Frequencies --    598.7703               618.5340               625.9764
 Red. masses --      4.5043                 4.9765                 4.6074
 Frc consts  --      0.9515                 1.1218                 1.0637
 IR Inten    --      6.0581                 6.5297                 5.0661

                     31                     32                     33
                      A                      A                      A
 Frequencies --    663.5761               722.0039               738.3891
 Red. masses --      4.5741                 3.1153                 3.5583
 Frc consts  --      1.1867                 0.9568                 1.1430
 IR Inten    --     11.9538                15.6519                 2.9392

                     34                     35                     36
                      A                      A                      A
 Frequencies --    760.1000               766.3871               779.6279
 Red. masses --      3.3977                 2.6375                 1.4384
 Frc consts  --      1.1566                 0.9127                 0.5151
 IR Inten    --      9.7789                24.8487                54.1501

                     37                     38                     39
                      A                      A                      A
 Frequencies --    794.1141               805.6835               821.3663
 Red. masses --      1.4901                 2.2296                 4.2545
 Frc consts  --      0.5536                 0.8527                 1.6911
 IR Inten    --     76.3741               175.7188                27.3514

                     40                     41                     42
                      A                      A                      A
 Frequencies --    863.2727               878.4488               886.7350
 Red. masses --      2.2133                 1.5862                 4.6397
 Frc consts  --      0.9718                 0.7212                 2.1495
 IR Inten    --     24.0003                 5.9654                28.0795

                     43                     44                     45
                      A                      A                      A
 Frequencies --    893.3581               914.8770               935.0196
 Red. masses --      3.2582                 1.3658                 2.5841
 Frc consts  --      1.5321                 0.6735                 1.3311
 IR Inten    --     22.1497                 3.1619                13.7995

                     46                     47                     48
                      A                      A                      A
 Frequencies --    942.2062               957.8570               976.7662
 Red. masses --      2.1782                 1.4008                 1.3339
 Frc consts  --      1.1393                 0.7572                 0.7498
 IR Inten    --     33.5818                 0.5660                 9.3687

                     49                     50                     51
                      A                      A                      A
 Frequencies --    982.2999               984.1096               988.7745
 Red. masses --      2.2569                 2.5379                 1.2848
 Frc consts  --      1.2831                 1.4481                 0.7401
 IR Inten    --     39.8544                54.4228                 2.7698

                     52                     53                     54
                      A                      A                      A
 Frequencies --   1029.4830              1039.1691              1059.3350
 Red. masses --      2.1502                 1.9688                 2.2800
 Frc consts  --      1.3427                 1.2526                 1.5074
 IR Inten    --     21.8164                22.9535                 7.7839

                     55                     56                     57
                      A                      A                      A
 Frequencies --   1071.4592              1074.8219              1111.5628
 Red. masses --      2.1587                 1.5051                 2.9541
 Frc consts  --      1.4602                 1.0244                 2.1505
 IR Inten    --     14.4128                 5.2822                88.6502

                     58                     59                     60
                      A                      A                      A
 Frequencies --   1119.0773              1131.0846              1148.0562
 Red. masses --      2.0427                 1.8037                 2.5533
 Frc consts  --      1.5072                 1.3596                 1.9828
 IR Inten    --     33.7793                71.7745                30.0836

                     61                     62                     63
                      A                      A                      A
 Frequencies --   1166.7015              1183.8743              1201.5153
 Red. masses --      2.5399                 1.1371                 2.0532
 Frc consts  --      2.0370                 0.9389                 1.7464
 IR Inten    --     18.8557                 4.0390                34.2200

                     64                     65                     66
                      A                      A                      A
 Frequencies --   1208.9976              1216.8800              1223.7617
 Red. masses --      1.7021                 2.3412                 1.2965
 Frc consts  --      1.4658                 2.0426                 1.1440
 IR Inten    --      8.2638                26.8980                17.6899

                     67                     68                     69
                      A                      A                      A
 Frequencies --   1239.8092              1260.5872              1288.5051
 Red. masses --      3.3525                 1.4199                 1.9172
 Frc consts  --      3.0362                 1.3294                 1.8754
 IR Inten    --    279.4326                62.3371                81.5129

                     70                     71                     72
                      A                      A                      A
 Frequencies --   1293.0207              1301.3375              1310.1312
 Red. masses --      1.7385                 1.7745                 1.7464
 Frc consts  --      1.7125                 1.7705                 1.7661
 IR Inten    --      4.8859               123.1458               122.3197

                     73                     74                     75
                      A                      A                      A
 Frequencies --   1324.3311              1349.9484              1353.8450
 Red. masses --      1.7101                 4.0570                 3.2636
 Frc consts  --      1.7672                 4.3560                 3.5244
 IR Inten    --     12.4462                 7.5305                16.1784

                     76                     77                     78
                      A                      A                      A
 Frequencies --   1365.4487              1378.7864              1388.4094
 Red. masses --      1.7433                 1.3115                 1.3422
 Frc consts  --      1.9150                 1.4689                 1.5244
 IR Inten    --      9.8462                17.1804                22.7974

                     79                     80                     81
                      A                      A                      A
 Frequencies --   1414.7348              1428.4060              1437.9832
 Red. masses --      1.3727                 1.4716                 1.2508
 Frc consts  --      1.6187                 1.7691                 1.5238
 IR Inten    --     64.6645                27.2371                 0.6717

                     82                     83                     84
                      A                      A                      A
 Frequencies --   1477.8777              1487.4635              1493.2787
 Red. masses --      2.2361                 2.1808                 1.1209
 Frc consts  --      2.8775                 2.8429                 1.4726
 IR Inten    --    137.6695                50.5263                12.1401

                     85                     86                     87
                      A                      A                      A
 Frequencies --   1499.0565              1503.0242              1508.9919
 Red. masses --      1.0920                 1.0658                 1.4334
 Frc consts  --      1.4458                 1.4186                 1.9231
 IR Inten    --     11.3287                11.1864                16.0717

                     88                     89                     90
                      A                      A                      A
 Frequencies --   1510.4919              1515.0961              1526.3888
 Red. masses --      1.3114                 1.1794                 2.3069
 Frc consts  --      1.7629                 1.5951                 3.1667
 IR Inten    --     35.8086                56.9478                85.5189

                     91                     92                     93
                      A                      A                      A
 Frequencies --   1532.1285              1630.2276              1643.0645
 Red. masses --      1.6525                 6.0942                 5.4908
 Frc consts  --      2.2855                 9.5426                 8.7336
 IR Inten    --     18.1884                34.1004                 0.3844

                     94                     95                     96
                      A                      A                      A
 Frequencies --   1657.0393              1659.7720              3034.6901
 Red. masses --      7.6875                 6.1594                 1.0825
 Frc consts  --     12.4365                 9.9974                 5.8739
 IR Inten    --      0.9994                15.4827                40.5010

                     97                     98                     99
                      A                      A                      A
 Frequencies --   3069.8943              3071.3783              3074.6611
 Red. masses --      1.0361                 1.0589                 1.0616
 Frc consts  --      5.7528                 5.8851                 5.9129
 IR Inten    --     45.9614                60.5777                63.3120

                    100                    101                    102
                      A                      A                      A
 Frequencies --   3085.3758              3112.1216              3122.0468
 Red. masses --      1.0607                 1.1027                 1.1058
 Frc consts  --      5.9492                 6.2925                 6.3503
 IR Inten    --     76.0781                43.3551                85.2764

                    103                    104                    105
                      A                      A                      A
 Frequencies --   3127.2312              3127.7965              3146.9158
 Red. masses --      1.1011                 1.1059                 1.1031
 Frc consts  --      6.3443                 6.3743                 6.4361
 IR Inten    --     25.8538                44.6170                34.7628

                    106                    107                    108
                      A                      A                      A
 Frequencies --   3198.1852              3207.4204              3216.6322
 Red. masses --      1.0878                 1.0857                 1.0925
 Frc consts  --      6.5556                 6.5809                 6.6603
 IR Inten    --     15.7607                 1.3604                38.8369

                    109                    110                    111
                      A                      A                      A
 Frequencies --   3218.4529              3227.7051              3233.9362
 Red. masses --      1.0895                 1.0924                 1.0969
 Frc consts  --      6.6492                 6.7056                 6.7590
 IR Inten    --     22.3775                40.7285                22.7150

                    112                    113                    114
                      A                      A                      A
 Frequencies --   3244.9887              3514.1526              3702.8392
 Red. masses --      1.0914                 1.0735                 1.0664
 Frc consts  --      6.7710                 7.8105                 8.6149
 IR Inten    --     36.1260                 0.6372                78.2113

 - Thermochemistry -
 -------------------
 Temperature   298.150 Kelvin.  Pressure   1.00000 Atm.
 Atom     1 has atomic number  6 and mass  12.00000

 Molecular mass:   281.14158 amu.
 Principal axes and moments of inertia in atomic units:
                           1         2         3
     Eigenvalues --  4719.491724849.509368565.39970
           X            0.94620  -0.32358   0.00044
           Y            0.32358   0.94620   0.00239
           Z           -0.00119  -0.00212   1.00000
 This molecule is an asymmetric top.
 Rotational symmetry number  1.
 Warning -- assumption of classical behavior for rotation
           may cause significant error
 Rotational temperatures (Kelvin)      0.01835     0.01786     0.01011
 Rotational constants (GHZ):           0.38240     0.37215     0.21070
 Zero-point vibrational energy     886038.4 (Joules/Mol)
                                  211.76825 (Kcal/Mol)
 Warning -- explicit consideration of  29 degrees of freedom as
           vibrations may cause significant error
 Vibrational temperatures:     69.68   100.02   130.65   161.92   199.46
          (Kelvin)            246.50   268.28   308.28   329.97   355.80
                              397.04   414.94   426.03   449.68   487.78
                              508.18   544.51   553.06   593.69   640.89
                              706.35   730.39   745.52   757.03   800.66
                              814.36   826.19   861.50   889.93   900.64
                              954.74  1038.80  1062.38  1093.61  1102.66
                             1121.71  1142.55  1159.20  1181.76  1242.06
                             1263.89  1275.81  1285.34  1316.30  1345.28
                             1355.62  1378.14  1405.35  1413.31  1415.91
                             1422.63  1481.20  1495.13  1524.15  1541.59
                             1546.43  1599.29  1610.10  1627.38  1651.80
                             1678.62  1703.33  1728.71  1739.48  1750.82
                             1760.72  1783.81  1813.70  1853.87  1860.37
                             1872.33  1884.99  1905.42  1942.27  1947.88
                             1964.58  1983.77  1997.61  2035.49  2055.16
                             2068.94  2126.34  2140.13  2148.49  2156.81
                             2162.52  2171.10  2173.26  2179.89  2196.13
                             2204.39  2345.53  2364.00  2384.11  2388.04
                             4366.24  4416.89  4419.03  4423.75  4439.17
                             4477.65  4491.93  4499.39  4500.20  4527.71
                             4601.48  4614.76  4628.02  4630.64  4643.95
                             4652.91  4668.81  5056.08  5327.56

 Zero-point correction=                           0.337474 (Hartree/Particle)
 Thermal correction to Energy=                    0.354276
 Thermal correction to Enthalpy=                  0.355220
 Thermal correction to Gibbs Free Energy=         0.294464
 Sum of electronic and zero-point Energies=           -902.211867
 Sum of electronic and thermal Energies=              -902.195065
 Sum of electronic and thermal Enthalpies=            -902.194121
 Sum of electronic and thermal Free Energies=         -902.254878

                     E (Thermal)             CV                S
                      KCal/Mol        Cal/Mol-Kelvin    Cal/Mol-Kelvin
 Total                  222.312             70.526            127.873
 Electronic               0.000              0.000              0.000
 Translational            0.889              2.981             42.799
 Rotational               0.889              2.981             33.638
 Vibrational            220.534             64.565             51.436
 Vibration     1          0.595              1.978              4.881
 Vibration     2          0.598              1.969              4.167
 Vibration     3          0.602              1.956              3.643
 Vibration     4          0.607              1.939              3.225
 Vibration     5          0.614              1.915              2.823
 Vibration     6          0.626              1.878              2.421
 Vibration     7          0.632              1.858              2.263
 Vibration     8          0.644              1.819              2.007
 Vibration     9          0.652              1.796              1.884
 Vibration    10          0.661              1.767              1.750
 Vibration    11          0.678              1.718              1.559
 Vibration    12          0.685              1.695              1.483
 Vibration    13          0.690              1.681              1.439
 Vibration    14          0.701              1.650              1.349
 Vibration    15          0.719              1.598              1.217
 Vibration    16          0.729              1.569              1.152
 Vibration    17          0.749              1.516              1.045
 Vibration    18          0.753              1.503              1.022
 Vibration    19          0.776              1.443              0.917
 Vibration    20          0.805              1.371              0.810
 Vibration    21          0.847              1.270              0.681
 Vibration    22          0.863              1.233              0.639
 Vibration    23          0.873              1.210              0.614
 Vibration    24          0.881              1.192              0.596
 Vibration    25          0.912              1.126              0.531
 Vibration    26          0.922              1.105              0.512
 Vibration    27          0.931              1.087              0.496
 Vibration    28          0.957              1.034              0.452
 Vibration    29          0.978              0.993              0.419

                           ! Non-Optimized Parameters !
 Normal termination of Gaussian 16 at Tue Mar  1 22:56:59 2022.

 ------------------------------------------
 #p b3lyp/6-31G(d) geom=allcheck guess=read
 ------------------------------------------

 Structure from the checkpoint file:  "74.n.pdb.xyz.mst.wat.chk"
 ------------
 74.n.pdb.xyz
 ------------
 Charge =  0 Multiplicity = 1

 SCF Done:  E(RB3LYP) =  -902.534885615     A.U. after   11 cycles
 Normal termination of Gaussian 16 at Tue Mar  1 23:01:16 2022.
 Gaussian 16:  ES64L-G16RevA.03 25-Dec-2016

 ----------------------------------------------------------------------
 #p b3lyp/6-31G(d) scrf=(iefpcm,read,solvent=water) geom=allcheck guess
 =read
 ----------------------------------------------------------------------

 Structure from the checkpoint file:  "74.n.pdb.xyz.mst.wat.chk"
 ------------
 74.n.pdb.xyz
 ------------
 Charge =  0 Multiplicity = 1

                         Standard orientation:
 ---------------------------------------------------------------------
 Center     Atomic      Atomic             Coordinates (Angstroms)
 Number     Number       Type             X           Y           Z
 ---------------------------------------------------------------------
      1          6           0       -0.519717    3.959125    0.034149
      2          6           0        0.562787    2.919328   -0.089966
      3          6           0        1.806338    3.222912   -0.653140
      4          6           0        2.805513    2.254789   -0.739819
      5          6           0        2.574497    0.964331   -0.265338
      6          6           0        1.339432    0.610440    0.295740
      7          6           0        0.363641    1.609844    0.365352
      8          8           0       -0.840486    1.335707    1.006952
      9          6           0       -1.743519    0.483278    0.387336
     10          6           0       -3.038482    0.998089    0.253667
     11          6           0       -4.050238    0.229142   -0.308516
     12          6           0       -3.762422   -1.067152   -0.742794
     13          6           0       -2.475029   -1.570050   -0.592147
     14          6           0       -1.428269   -0.819487   -0.024860
     15          6           0       -0.094489   -1.549124    0.188077
     16          8           0       -0.380643   -2.720762    0.981189
     17          6           0        0.467194   -2.099475   -1.136027
     18          6           0        1.693473   -2.986605   -0.884942
     19          7           0        2.763026   -2.320303   -0.133062
     20          6           0        2.264213   -1.662142    1.080542
     21          6           0        1.028597   -0.741214    0.916166
     22          1           0       -0.172205    4.918762   -0.356422
     23          1           0       -0.820984    4.102590    1.076050
     24          1           0       -1.418603    3.671619   -0.518920
     25          1           0        1.986147    4.229537   -1.018657
     26          1           0        3.770189    2.506292   -1.167903
     27          1           0        3.378810    0.241533   -0.305041
     28          1           0       -3.224660    2.007969    0.600880
     29          1           0       -5.049863    0.638341   -0.409661
     30          1           0       -4.537145   -1.684828   -1.184354
     31          1           0       -2.266900   -2.590412   -0.892681
     32          1           0       -0.800091   -2.418718    1.806281
     33          1           0       -0.306555   -2.674613   -1.652779
     34          1           0        0.733874   -1.257810   -1.783960
     35          1           0        1.377766   -3.872339   -0.325092
     36          1           0        2.107990   -3.331109   -1.837189
     37          1           0        3.187046   -1.628443   -0.747366
     38          1           0        1.988393   -2.446239    1.790037
     39          1           0        3.085061   -1.093558    1.526714
     40          1           0        0.648462   -0.532179    1.925493
 ---------------------------------------------------------------------

 SCF Done:  E(RB3LYP) =  -902.547941951     A.U. after   10 cycles

 The electronic state is 1-A.
 Alpha  occ. eigenvalues --  -19.18325 -19.14399 -14.31474 -10.25398 -10.25262
 Alpha  occ. eigenvalues --  -10.24393 -10.20242 -10.20018 -10.20014 -10.19987
 Alpha  occ. eigenvalues --  -10.19934 -10.19482 -10.19425 -10.19252 -10.19132
 Alpha  occ. eigenvalues --  -10.19093 -10.18963 -10.18943 -10.18908 -10.18075
 Alpha  occ. eigenvalues --  -10.17726  -1.07365  -1.01925  -0.90346  -0.86573
 Alpha  occ. eigenvalues --   -0.85265  -0.80077  -0.77709  -0.76616  -0.74785
 Alpha  occ. eigenvalues --   -0.74225  -0.71415  -0.68651  -0.65076  -0.64071
 Alpha  occ. eigenvalues --   -0.61681  -0.60379  -0.58843  -0.57718  -0.56179
 Alpha  occ. eigenvalues --   -0.53620  -0.50486  -0.49906  -0.48958  -0.48577
 Alpha  occ. eigenvalues --   -0.47001  -0.46047  -0.45011  -0.44321  -0.43787
 Alpha  occ. eigenvalues --   -0.42808  -0.42649  -0.41611  -0.40943  -0.40424
 Alpha  occ. eigenvalues --   -0.39801  -0.38958  -0.38311  -0.37394  -0.36919
 Alpha  occ. eigenvalues --   -0.36754  -0.36278  -0.35437  -0.35194  -0.34322
 Alpha  occ. eigenvalues --   -0.33750  -0.32773  -0.31517  -0.30051  -0.28440
 Alpha  occ. eigenvalues --   -0.25212  -0.24701  -0.23871  -0.23167  -0.21883
 Alpha virt. eigenvalues --   -0.01447  -0.00399  -0.00185   0.00127   0.08558
 Alpha virt. eigenvalues --    0.08970   0.09798   0.11149   0.11778   0.12793
 Alpha virt. eigenvalues --    0.13310   0.13960   0.14474   0.15342   0.15915

 Mulliken charges:
               1
     1  C   -0.528188
     2  C    0.153182
     3  C   -0.225202
     4  C   -0.139914
     5  C   -0.248468
     6  C    0.164839
     7  C    0.192472
     8  O   -0.589277
     9  C    0.255063
    10  C   -0.185271
    11  C   -0.157271
    12  C   -0.148276
    13  C   -0.210906
    14  C    0.132646
    15  C    0.241567
    16  O   -0.674481
    17  C   -0.286299
    18  C   -0.146444
    19  N   -0.601806
    20  C   -0.160503
    21  C   -0.208199
    22  H    0.162955
    23  H    0.171634
    24  H    0.171690
    25  H    0.145806
    26  H    0.148715
    27  H    0.146138
    28  H    0.155548
    29  H    0.154757
    30  H    0.149988
    31  H    0.154916
    32  H    0.431611
    33  H    0.146996
    34  H    0.147102
    35  H    0.150486
    36  H    0.144641
    37  H    0.334622
    38  H    0.151156
    39  H    0.151180
    40  H    0.150795
 Sum of Mulliken charges =  -0.00000

 Dipole moment (field-independent basis, Debye):
    X=             -1.2841    Y=              2.1131    Z=             -0.7628  Tot=              2.5876
 Quadrupole moment (field-independent basis, Debye-Ang):
   XX=           -115.4685   YY=           -123.1661   ZZ=           -119.4928
   XY=              6.5560   XZ=             -2.8598   YZ=             -0.4830

 Normal termination of Gaussian 16 at Tue Mar  1 23:05:49 2022.
