 Gaussian 16, Revision A.03,

 ----------------------------------------------------------------------
 #p b3lyp/6-31G(d) opt=(MaxStep=10,MaxCycles=1000) freq scf=(MaxCycle=2
 000,NoVarAcc,NoIncFock) scrf=(iefpcm,read,solvent=water)
 ----------------------------------------------------------------------

 ------------
 75.n.pdb.xyz
 ------------
 Symbolic Z-matrix:
 Charge =  0 Multiplicity = 1

 SCF Done:  E(RB3LYP) =  -355.022429053     A.U. after    9 cycles
 SCF Done:  E(RB3LYP) =  -355.024750762     A.U. after    8 cycles
 SCF Done:  E(RB3LYP) =  -355.024874799     A.U. after    7 cycles
 SCF Done:  E(RB3LYP) =  -355.024902616     A.U. after    7 cycles
 Optimization completed.
    -- Stationary point found.
 Normal termination of Gaussian 16 at Tue Mar  1 21:09:20 2022.

 --------------------------------------------------------------------
 #P Geom=AllCheck Guess=TCheck SCRF=Check GenChk RB3LYP/6-31G(d) Freq
 --------------------------------------------------------------------

 Structure from the checkpoint file:  "75.n.pdb.xyz.mst.wat.chk"
 ------------
 75.n.pdb.xyz
 ------------
 Charge =  0 Multiplicity = 1

 SCF Done:  E(RB3LYP) =  -355.024902616     A.U. after    1 cycles

  Exact polarizability: 138.294  -0.000 119.983  -0.002   0.005 120.348
 Approx polarizability: 126.269   0.000 125.263  -0.001   0.005 128.392

                      1                      2                      3
                      A                      A                      A
 Frequencies --     42.0476                62.6057                69.4123
 Red. masses --      3.1810                 3.3162                 1.5490
 Frc consts  --      0.0033                 0.0077                 0.0044
 IR Inten    --      0.0026                 0.0041                 0.0000

                      4                      5                      6
                      A                      A                      A
 Frequencies --     99.4666               122.4190               155.8010
 Red. masses --      2.5479                 1.6359                 2.1723
 Frc consts  --      0.0149                 0.0144                 0.0311
 IR Inten    --      0.0000                 0.0037                 0.0006

                      7                      8                      9
                      A                      A                      A
 Frequencies --    158.7131               165.2187               239.5553
 Red. masses --      3.0168                 1.8292                 3.7459
 Frc consts  --      0.0448                 0.0294                 0.1267
 IR Inten    --      0.0003                 0.0000                 0.0112

                     10                     11                     12
                      A                      A                      A
 Frequencies --    255.2159               255.5335               287.7638
 Red. masses --      1.1083                 1.1199                 2.9201
 Frc consts  --      0.0425                 0.0431                 0.1425
 IR Inten    --      0.0002                 0.0000                 0.0531

                     13                     14                     15
                      A                      A                      A
 Frequencies --    394.3884               452.2054               490.9220
 Red. masses --      2.7736                 3.2155                 2.7541
 Frc consts  --      0.2542                 0.3874                 0.3911
 IR Inten    --      0.0375                 0.0891                 0.0990

                     16                     17                     18
                      A                      A                      A
 Frequencies --    734.8370               738.6612               749.9844
 Red. masses --      1.0639                 1.0642                 1.0950
 Frc consts  --      0.3385                 0.3421                 0.3629
 IR Inten    --      8.9650                 6.6822                 2.4634

                     19                     20                     21
                      A                      A                      A
 Frequencies --    783.6234               838.4449               902.5068
 Red. masses --      1.1406                 1.1793                 2.0271
 Frc consts  --      0.4126                 0.4884                 0.9728
 IR Inten    --      0.0245                 1.9260                 2.0855

                     22                     23                     24
                      A                      A                      A
 Frequencies --    906.6454               910.3659               984.1596
 Red. masses --      1.8028                 1.1934                 1.1631
 Frc consts  --      0.8731                 0.5827                 0.6637
 IR Inten    --      3.3804                 0.0236                 1.0192

                     25                     26                     27
                      A                      A                      A
 Frequencies --   1004.2036              1029.1079              1042.2593
 Red. masses --      4.4877                 2.6914                 3.1465
 Frc consts  --      2.6663                 1.6794                 2.0139
 IR Inten    --      0.0893                 0.8235                 0.2238

                     28                     29                     30
                      A                      A                      A
 Frequencies --   1049.0895              1067.2848              1077.1276
 Red. masses --      1.0855                 2.5254                 2.0622
 Frc consts  --      0.7039                 1.6949                 1.4097
 IR Inten    --      0.0001                 0.0449                 0.0105

                     31                     32                     33
                      A                      A                      A
 Frequencies --   1078.1652              1116.1618              1161.9629
 Red. masses --      2.2019                 1.8432                 2.8065
 Frc consts  --      1.5081                 1.3529                 2.2326
 IR Inten    --      0.4271                 4.2382                 1.4249

                     34                     35                     36
                      A                      A                      A
 Frequencies --   1213.9415              1240.4527              1251.2018
 Red. masses --      1.9319                 1.5708                 1.3035
 Frc consts  --      1.6774                 1.4240                 1.2023
 IR Inten    --      0.1750                 0.0022                 5.7517

                     37                     38                     39
                      A                      A                      A
 Frequencies --   1279.9908              1296.7956              1313.1465
 Red. masses --      1.3648                 1.3097                 1.2469
 Frc consts  --      1.3175                 1.2977                 1.2668
 IR Inten    --      0.0139                 0.0732                 0.0021

                     40                     41                     42
                      A                      A                      A
 Frequencies --   1333.2849              1336.8239              1339.2735
 Red. masses --      1.1248                 1.0470                 1.3457
 Frc consts  --      1.1781                 1.1024                 1.4221
 IR Inten    --      0.2420                 0.1540                 3.1817

                     43                     44                     45
                      A                      A                      A
 Frequencies --   1341.4269              1343.5846              1377.3813
 Red. masses --      1.0802                 1.0925                 1.4416
 Frc consts  --      1.1452                 1.1620                 1.6114
 IR Inten    --      0.1090                 0.0613                 0.0060

                     46                     47                     48
                      A                      A                      A
 Frequencies --   1404.4652              1419.2820              1422.4817
 Red. masses --      1.5569                 1.6592                 1.7088
 Frc consts  --      1.8094                 1.9691                 2.0372
 IR Inten    --      2.0285                 0.0894                 0.4076

                     49                     50                     51
                      A                      A                      A
 Frequencies --   1431.8325              1433.9096              1493.4313
 Red. masses --      1.2588                 1.2562                 1.0682
 Frc consts  --      1.5205                 1.5218                 1.4037
 IR Inten    --      0.8112                 0.9117                 0.3907

                     52                     53                     54
                      A                      A                      A
 Frequencies --   1497.4894              1502.4268              1507.1945
 Red. masses --      1.0760                 1.0699                 1.0710
 Frc consts  --      1.4217                 1.4229                 1.4334
 IR Inten    --      0.0597                 0.1209                 0.6271

                     55                     56                     57
                      A                      A                      A
 Frequencies --   1514.0898              1516.9641              1520.3951
 Red. masses --      1.0769                 1.0412                 1.0416
 Frc consts  --      1.4545                 1.4117                 1.4186
 IR Inten    --      0.3642                 6.5866                 6.6133

                     58                     59                     60
                      A                      A                      A
 Frequencies --   1523.0728              1528.2378              1534.3070
 Red. masses --      1.0803                 1.0847                 1.0935
 Frc consts  --      1.4765                 1.4926                 1.5167
 IR Inten    --      0.7137                 2.0005                 0.5124

                     61                     62                     63
                      A                      A                      A
 Frequencies --   1538.1362              3020.2519              3022.2752
 Red. masses --      1.0962                 1.0580                 1.0581
 Frc consts  --      1.5281                 5.6864                 5.6945
 IR Inten    --      7.0722                 8.1470                 0.0614

                     64                     65                     66
                      A                      A                      A
 Frequencies --   3023.7366              3026.5315              3030.3410
 Red. masses --      1.0585                 1.0589                 1.0597
 Frc consts  --      5.7022                 5.7146                 5.7334
 IR Inten    --      1.8928                 6.0396                96.8908

                     67                     68                     69
                      A                      A                      A
 Frequencies --   3034.5025              3038.2732              3041.6642
 Red. masses --      1.0601                 1.0598                 1.0985
 Frc consts  --      5.7512                 5.7640                 5.9876
 IR Inten    --    196.3535               164.5712                 0.6906

                     70                     71                     72
                      A                      A                      A
 Frequencies --   3043.8419              3047.3466              3050.0449
 Red. masses --      1.0999                 1.0365                 1.1018
 Frc consts  --      6.0040                 5.6710                 6.0391
 IR Inten    --      0.3692                50.0125                 0.5703

                     73                     74                     75
                      A                      A                      A
 Frequencies --   3051.8366              3059.2383              3067.8093
 Red. masses --      1.0360                 1.1039                 1.1053
 Frc consts  --      5.6850                 6.0873                 6.1288
 IR Inten    --     49.7071                 1.6570                 4.4210

                     76                     77                     78
                      A                      A                      A
 Frequencies --   3075.5738              3080.2867              3109.1996
 Red. masses --      1.1057                 1.1057                 1.1028
 Frc consts  --      6.1625                 6.1809                 6.2813
 IR Inten    --      8.0114               457.8200               115.7861

                     79                     80                     81
                      A                      A                      A
 Frequencies --   3114.2780              3116.9302              3120.2668
 Red. masses --      1.1030                 1.1020                 1.1020
 Frc consts  --      6.3030                 6.3079                 6.3213
 IR Inten    --    114.8200                74.6549                73.9859

 - Thermochemistry -
 -------------------
 Temperature   298.150 Kelvin.  Pressure   1.00000 Atm.
 Atom     1 has atomic number  6 and mass  12.00000

 Molecular mass:   128.15650 amu.
 Principal axes and moments of inertia in atomic units:
                           1         2         3
     Eigenvalues --   192.785885246.311355338.92988
           X            1.00000   0.00000   0.00000
           Y           -0.00000   1.00000   0.00001
           Z           -0.00000  -0.00001   1.00000
 This molecule is an asymmetric top.
 Rotational symmetry number  1.
 Rotational temperatures (Kelvin)      0.44928     0.01651     0.01622
 Rotational constants (GHZ):           9.36138     0.34400     0.33803
 Zero-point vibrational energy     724070.3 (Joules/Mol)
                                  173.05697 (Kcal/Mol)
 Warning -- explicit consideration of  15 degrees of freedom as
           vibrations may cause significant error
 Vibrational temperatures:     60.50    90.08    99.87   143.11   176.13
          (Kelvin)            224.16   228.35   237.71   344.67   367.20
                              367.66   414.03   567.44   650.62   706.33
                             1057.27  1062.77  1079.06  1127.46  1206.34
                             1298.51  1304.46  1309.81  1415.99  1444.82
                             1480.66  1499.58  1509.41  1535.58  1549.75
                             1551.24  1605.91  1671.81  1746.59  1784.73
                             1800.20  1841.62  1865.80  1889.32  1918.30
                             1923.39  1926.92  1930.01  1933.12  1981.74
                             2020.71  2042.03  2046.63  2060.09  2063.08
                             2148.71  2154.55  2161.66  2168.52  2178.44
                             2182.57  2187.51  2191.36  2198.79  2207.53
                             2213.03  4345.47  4348.38  4350.48  4354.50
                             4359.98  4365.97  4371.40  4376.28  4379.41
                             4384.45  4388.33  4390.91  4401.56  4413.89
                             4425.06  4431.85  4473.44  4480.75  4484.57
                             4489.37

 Zero-point correction=                           0.275784 (Hartree/Particle)
 Thermal correction to Energy=                    0.288196
 Thermal correction to Enthalpy=                  0.289141
 Thermal correction to Gibbs Free Energy=         0.236682
 Sum of electronic and zero-point Energies=           -354.749119
 Sum of electronic and thermal Energies=              -354.736706
 Sum of electronic and thermal Enthalpies=            -354.735762
 Sum of electronic and thermal Free Energies=         -354.788221

                     E (Thermal)             CV                S
                      KCal/Mol        Cal/Mol-Kelvin    Cal/Mol-Kelvin
 Total                  180.846             43.745            110.410
 Electronic               0.000              0.000              0.000
 Translational            0.889              2.981             40.457
 Rotational               0.889              2.981             30.069
 Vibrational            179.069             37.784             39.883
 Vibration     1          0.595              1.980              5.160
 Vibration     2          0.597              1.972              4.373
 Vibration     3          0.598              1.969              4.170
 Vibration     4          0.604              1.949              3.465
 Vibration     5          0.610              1.930              3.062
 Vibration     6          0.620              1.896              2.600
 Vibration     7          0.621              1.893              2.565
 Vibration     8          0.624              1.885              2.489
 Vibration     9          0.657              1.780              1.806
 Vibration    10          0.666              1.754              1.694
 Vibration    11          0.666              1.753              1.692
 Vibration    12          0.685              1.696              1.487
 Vibration    13          0.761              1.482              0.984
 Vibration    14          0.811              1.356              0.789
 Vibration    15          0.847              1.270              0.681

 Optimization completed.
    -- Stationary point found.
 Normal termination of Gaussian 16 at Tue Mar  1 21:19:22 2022.

 ------------------------------------------
 #p b3lyp/6-31G(d) geom=allcheck guess=read
 ------------------------------------------

 Structure from the checkpoint file:  "75.n.pdb.xyz.mst.wat.chk"
 ------------
 75.n.pdb.xyz
 ------------
 Charge =  0 Multiplicity = 1

 SCF Done:  E(RB3LYP) =  -355.026580142     A.U. after    7 cycles
 Normal termination of Gaussian 16 at Tue Mar  1 21:19:59 2022.
 Gaussian 16:  ES64L-G16RevA.03 25-Dec-2016

 ----------------------------------------------------------------------
 #p b3lyp/6-31G(d) scrf=(iefpcm,read,solvent=water) geom=allcheck guess
 =read
 ----------------------------------------------------------------------

 Structure from the checkpoint file:  "75.n.pdb.xyz.mst.wat.chk"
 ------------
 75.n.pdb.xyz
 ------------
 Charge =  0 Multiplicity = 1

                         Standard orientation:
 ---------------------------------------------------------------------
 Center     Atomic      Atomic             Coordinates (Angstroms)
 Number     Number       Type             X           Y           Z
 ---------------------------------------------------------------------
      1          6           0       -5.121346   -0.369086    0.000008
      2          6           0       -3.846387    0.477715    0.000025
      3          6           0       -2.563772   -0.360374    0.000002
      4          6           0       -1.281962    0.478905   -0.000003
      5          6           0        0.000111   -0.360113    0.000015
      6          6           0        1.282171    0.478656   -0.000034
      7          6           0        2.563837   -0.360534   -0.000056
      8          6           0        3.846253    0.477645   -0.000077
      9          6           0        5.121037   -0.368915    0.000083
     10          1           0       -5.166236   -1.015096    0.884002
     11          1           0       -6.018811    0.258021   -0.000122
     12          1           0       -5.166080   -1.015245   -0.883877
     13          1           0       -3.846345    1.137567   -0.877472
     14          1           0       -3.846330    1.137514    0.877563
     15          1           0       -2.564768   -1.021180   -0.878071
     16          1           0       -2.564714   -1.021191    0.878037
     17          1           0       -1.282055    1.139517    0.878065
     18          1           0       -1.282052    1.139498   -0.878137
     19          1           0        0.000116   -1.020789    0.878018
     20          1           0        0.000125   -1.020844   -0.877953
     21          1           0        1.282366    1.139375    0.877984
     22          1           0        1.282351    1.139155   -0.878076
     23          1           0        2.564805   -1.021305   -0.878103
     24          1           0        2.564865   -1.021334    0.878021
     25          1           0        3.846236    1.137195    0.877426
     26          1           0        3.846218    1.137626   -0.877497
     27          1           0        6.018363    0.258386    0.000550
     28          1           0        5.165746   -1.014892    0.884140
     29          1           0        5.166538   -1.015374   -0.884282
 ---------------------------------------------------------------------

 SCF Done:  E(RB3LYP) =  -355.024785453     A.U. after    7 cycles

 The electronic state is 1-A.
 Alpha  occ. eigenvalues --  -10.17398 -10.17394 -10.17166 -10.17156 -10.17146
 Alpha  occ. eigenvalues --  -10.17135 -10.17128 -10.16846 -10.16842  -0.80485
 Alpha  occ. eigenvalues --   -0.78597  -0.75511  -0.71384  -0.66510  -0.61460
 Alpha  occ. eigenvalues --   -0.57681  -0.57030  -0.56582  -0.47839  -0.46129
 Alpha  occ. eigenvalues --   -0.43470  -0.42756  -0.42244  -0.40205  -0.39558
 Alpha  occ. eigenvalues --   -0.39395  -0.36855  -0.36404  -0.34247  -0.34044
 Alpha  occ. eigenvalues --   -0.33475  -0.32292  -0.32256  -0.31608  -0.31542
 Alpha  occ. eigenvalues --   -0.31497  -0.29160
 Alpha virt. eigenvalues --    0.09281   0.09989   0.11135   0.11761   0.12735
 Alpha virt. eigenvalues --    0.13440   0.14061   0.15112   0.16627   0.17152
 Alpha virt. eigenvalues --    0.17247   0.18081   0.19538   0.19868   0.20224

 Mulliken charges:
               1
     1  C   -0.450978
     2  C   -0.249017
     3  C   -0.248634
     4  C   -0.255536
     5  C   -0.256102
     6  C   -0.255520
     7  C   -0.248624
     8  C   -0.248954
     9  C   -0.450933
    10  H    0.143395
    11  H    0.143395
    12  H    0.143385
    13  H    0.131471
    14  H    0.131453
    15  H    0.127660
    16  H    0.127663
    17  H    0.127929
    18  H    0.127915
    19  H    0.127939
    20  H    0.127939
    21  H    0.127902
    22  H    0.127936
    23  H    0.127660
    24  H    0.127649
    25  H    0.131526
    26  H    0.131452
    27  H    0.143398
    28  H    0.143386
    29  H    0.143243
 Sum of Mulliken charges =  -0.00000

 Dipole moment (field-independent basis, Debye):
    X=              0.0001    Y=              0.0676    Z=              0.0006  Tot=              0.0676
 Quadrupole moment (field-independent basis, Debye-Ang):
   XX=            -63.0106   YY=            -61.9276   ZZ=            -60.1642
   XY=              0.0036   XZ=              0.0038   YZ=              0.0002

 Normal termination of Gaussian 16 at Tue Mar  1 21:20:57 2022.
