 Gaussian 16, Revision A.03,

 ----------------------------------------------------------------------
 #p b3lyp/6-31G(d) opt=(MaxStep=10,MaxCycles=1000) freq scf=(MaxCycle=2
 000,NoVarAcc,NoIncFock) scrf=(iefpcm,read,solvent=water)
 ----------------------------------------------------------------------

 ------------
 76.n.pdb.xyz
 ------------
 Symbolic Z-matrix:
 Charge =  0 Multiplicity = 1

 SCF Done:  E(RB3LYP) =  -870.239649661     A.U. after   12 cycles
 SCF Done:  E(RB3LYP) =  -870.242214461     A.U. after   10 cycles
 SCF Done:  E(RB3LYP) =  -870.242918355     A.U. after   10 cycles
 SCF Done:  E(RB3LYP) =  -870.242676978     A.U. after    9 cycles
 SCF Done:  E(RB3LYP) =  -870.242899380     A.U. after    9 cycles
 SCF Done:  E(RB3LYP) =  -870.242952489     A.U. after    9 cycles
 SCF Done:  E(RB3LYP) =  -870.242901076     A.U. after    9 cycles
 SCF Done:  E(RB3LYP) =  -870.242998119     A.U. after    9 cycles
 SCF Done:  E(RB3LYP) =  -870.242943269     A.U. after    9 cycles
 SCF Done:  E(RB3LYP) =  -870.242987371     A.U. after    8 cycles
 SCF Done:  E(RB3LYP) =  -870.243024887     A.U. after    8 cycles
 SCF Done:  E(RB3LYP) =  -870.243008570     A.U. after    8 cycles
 SCF Done:  E(RB3LYP) =  -870.243015733     A.U. after    9 cycles
 SCF Done:  E(RB3LYP) =  -870.243012972     A.U. after    9 cycles
 SCF Done:  E(RB3LYP) =  -870.243013207     A.U. after    7 cycles
 SCF Done:  E(RB3LYP) =  -870.243016705     A.U. after    9 cycles
 SCF Done:  E(RB3LYP) =  -870.243011880     A.U. after    9 cycles
 Optimization completed on the basis of negligible forces.
    -- Stationary point found.
 Normal termination of Gaussian 16 at Wed Mar  2 02:16:14 2022.

 --------------------------------------------------------------------
 #P Geom=AllCheck Guess=TCheck SCRF=Check GenChk RB3LYP/6-31G(d) Freq
 --------------------------------------------------------------------

 Structure from the checkpoint file:  "76.n.pdb.xyz.mst.wat.chk"
 ------------
 76.n.pdb.xyz
 ------------
 Charge =  0 Multiplicity = 1

 SCF Done:  E(RB3LYP) =  -870.243011880     A.U. after    1 cycles

  Exact polarizability: 340.947  15.014 259.106  34.310 -19.710 236.971
 Approx polarizability: 348.057  14.145 279.203  42.619 -27.908 263.292

                      1                      2                      3
                      A                      A                      A
 Frequencies --     19.6161                38.6442                43.4288
 Red. masses --      3.0445                 4.8327                 3.1493
 Frc consts  --      0.0007                 0.0043                 0.0035
 IR Inten    --      0.2875                 0.0590                 0.0202

                      4                      5                      6
                      A                      A                      A
 Frequencies --     81.7068                98.8303               116.5641
 Red. masses --      3.9550                 3.6152                 2.5500
 Frc consts  --      0.0156                 0.0208                 0.0204
 IR Inten    --      0.1767                 1.3555                 1.4132

                      7                      8                      9
                      A                      A                      A
 Frequencies --    151.3990               168.2802               189.6248
 Red. masses --      1.1668                 2.4256                 3.2381
 Frc consts  --      0.0158                 0.0405                 0.0686
 IR Inten    --      0.0934                 0.6852                 3.0732

                     10                     11                     12
                      A                      A                      A
 Frequencies --    204.0809               216.8472               237.9827
 Red. masses --      1.2423                 2.9011                 1.5735
 Frc consts  --      0.0305                 0.0804                 0.0525
 IR Inten    --      0.6209                 1.1520                 0.5033

                     13                     14                     15
                      A                      A                      A
 Frequencies --    252.8607               262.7009               272.5175
 Red. masses --      1.7366                 1.7270                 2.6868
 Frc consts  --      0.0654                 0.0702                 0.1176
 IR Inten    --      2.4417                 1.0184                 0.7503

                     16                     17                     18
                      A                      A                      A
 Frequencies --    285.0835               307.2904               320.1970
 Red. masses --      2.4451                 2.8664                 2.2708
 Frc consts  --      0.1171                 0.1595                 0.1372
 IR Inten    --      0.2100                 2.1037                 0.9735

                     19                     20                     21
                      A                      A                      A
 Frequencies --    334.1159               347.0234               370.6528
 Red. masses --      2.6351                 2.9101                 2.2936
 Frc consts  --      0.1733                 0.2065                 0.1857
 IR Inten    --      1.8973                 1.7289                24.5453

                     22                     23                     24
                      A                      A                      A
 Frequencies --    386.8568               396.8972               402.8178
 Red. masses --      2.0135                 1.6251                 2.1556
 Frc consts  --      0.1775                 0.1508                 0.2061
 IR Inten    --     62.9881                95.2326                 8.8351

                     25                     26                     27
                      A                      A                      A
 Frequencies --    418.8206               440.1318               446.3962
 Red. masses --      2.1203                 2.2084                 2.8344
 Frc consts  --      0.2191                 0.2521                 0.3328
 IR Inten    --      4.2237                 5.8060                 9.2616

                     28                     29                     30
                      A                      A                      A
 Frequencies --    478.2640               478.6941               489.0981
 Red. masses --      3.3480                 2.8828                 3.3639
 Frc consts  --      0.4512                 0.3892                 0.4741
 IR Inten    --      1.2679                 6.9635                 9.4031

                     31                     32                     33
                      A                      A                      A
 Frequencies --    504.4831               526.9909               536.1560
 Red. masses --      2.9397                 3.4234                 3.1868
 Frc consts  --      0.4408                 0.5602                 0.5397
 IR Inten    --      4.8478                 0.8002                 5.9525

                     34                     35                     36
                      A                      A                      A
 Frequencies --    578.6934               638.0675               662.5259
 Red. masses --      3.5350                 3.8810                 2.8440
 Frc consts  --      0.6975                 0.9309                 0.7355
 IR Inten    --      6.1498                 2.6013                 6.8808

                     37                     38                     39
                      A                      A                      A
 Frequencies --    700.5057               716.9267               729.7802
 Red. masses --      4.4848                 3.8140                 3.5967
 Frc consts  --      1.2966                 1.1550                 1.1286
 IR Inten    --      1.2261                10.7562                 4.5337

                     40                     41                     42
                      A                      A                      A
 Frequencies --    750.3675               794.3428               797.5014
 Red. masses --      4.1305                 2.5592                 2.3677
 Frc consts  --      1.3703                 0.9514                 0.8872
 IR Inten    --     11.6353                11.7143                14.1857

                     43                     44                     45
                      A                      A                      A
 Frequencies --    804.0854               818.4085               851.9624
 Red. masses --      2.4346                 1.5285                 1.9322
 Frc consts  --      0.9274                 0.6032                 0.8263
 IR Inten    --      0.6075                34.5666                 8.4315

                     46                     47                     48
                      A                      A                      A
 Frequencies --    874.5443               890.1609               910.8665
 Red. masses --      1.7485                 1.4480                 2.1277
 Frc consts  --      0.7879                 0.6760                 1.0401
 IR Inten    --     18.8507                15.5356                 7.2174

                     49                     50                     51
                      A                      A                      A
 Frequencies --    926.9195               943.9238               954.8923
 Red. masses --      2.2404                 1.4812                 2.4510
 Frc consts  --      1.1341                 0.7776                 1.3167
 IR Inten    --     14.3777                18.4800                41.0737

                     52                     53                     54
                      A                      A                      A
 Frequencies --    972.5691               981.2825               987.3521
 Red. masses --      1.4096                 1.7770                 1.9008
 Frc consts  --      0.7856                 1.0082                 1.0918
 IR Inten    --      0.5420                14.3885                18.9684

                     55                     56                     57
                      A                      A                      A
 Frequencies --    996.1453              1024.9102              1036.2973
 Red. masses --      1.9761                 1.2568                 1.8045
 Frc consts  --      1.1553                 0.7778                 1.1417
 IR Inten    --     14.3345                 4.1278                 6.3618

                     58                     59                     60
                      A                      A                      A
 Frequencies --   1037.4610              1047.8821              1060.4616
 Red. masses --      2.0394                 1.9641                 2.1132
 Frc consts  --      1.2933                 1.2707                 1.4002
 IR Inten    --     27.8462                10.8690                15.9034

                     61                     62                     63
                      A                      A                      A
 Frequencies --   1075.3813              1092.7528              1112.0326
 Red. masses --      2.0519                 2.4556                 1.6876
 Frc consts  --      1.3981                 1.7276                 1.2296
 IR Inten    --     15.7657                34.9256                 4.1259

                     64                     65                     66
                      A                      A                      A
 Frequencies --   1112.6632              1119.3079              1136.3777
 Red. masses --      1.8405                 2.0260                 1.9458
 Frc consts  --      1.3425                 1.4955                 1.4805
 IR Inten    --      5.6417                41.2286                11.4071

                     67                     68                     69
                      A                      A                      A
 Frequencies --   1153.1152              1158.5868              1175.3164
 Red. masses --      2.3066                 2.4297                 1.3700
 Frc consts  --      1.8071                 1.9216                 1.1150
 IR Inten    --      7.8169                 9.7238                10.5113

                     70                     71                     72
                      A                      A                      A
 Frequencies --   1198.5309              1212.8432              1218.8454
 Red. masses --      2.3769                 1.6594                 1.9754
 Frc consts  --      2.0116                 1.4382                 1.7290
 IR Inten    --      9.6834                25.1327                85.9900

                     73                     74                     75
                      A                      A                      A
 Frequencies --   1225.8759              1241.7938              1251.3802
 Red. masses --      1.5497                 1.8313                 2.1539
 Frc consts  --      1.3722                 1.6638                 1.9873
 IR Inten    --    132.0324                18.4525                28.4795

                     76                     77                     78
                      A                      A                      A
 Frequencies --   1272.9373              1274.6109              1290.9032
 Red. masses --      1.5396                 1.8109                 1.4791
 Frc consts  --      1.4699                 1.7334                 1.4522
 IR Inten    --      5.3096                19.0020                30.8833

                     79                     80                     81
                      A                      A                      A
 Frequencies --   1311.3575              1320.1289              1338.4720
 Red. masses --      2.2118                 1.7903                 1.4659
 Frc consts  --      2.2410                 1.8383                 1.5473
 IR Inten    --     36.0395                73.0525               163.5754

                     82                     83                     84
                      A                      A                      A
 Frequencies --   1351.7021              1362.9349              1368.1288
 Red. masses --      1.5957                 2.7038                 1.3537
 Frc consts  --      1.7178                 2.9592                 1.4929
 IR Inten    --      2.9877                46.6008                30.0999

                     85                     86                     87
                      A                      A                      A
 Frequencies --   1374.7125              1378.0399              1399.0310
 Red. masses --      1.5770                 1.6176                 1.3641
 Frc consts  --      1.7560                 1.8098                 1.5731
 IR Inten    --      9.7285                12.7392                 1.0253

                     88                     89                     90
                      A                      A                      A
 Frequencies --   1405.0093              1422.6576              1426.0682
 Red. masses --      1.2828                 1.2972                 1.2805
 Frc consts  --      1.4920                 1.5469                 1.5344
 IR Inten    --     14.3876                23.3063                 3.4267

                     91                     92                     93
                      A                      A                      A
 Frequencies --   1432.2256              1435.4021              1437.9836
 Red. masses --      1.4016                 1.2679                 1.2460
 Frc consts  --      1.6939                 1.5392                 1.5180
 IR Inten    --      5.1139                11.4059                 0.1243

                     94                     95                     96
                      A                      A                      A
 Frequencies --   1453.1657              1479.2324              1490.1065
 Red. masses --      1.3094                 1.2140                 1.0464
 Frc consts  --      1.6292                 1.5651                 1.3690
 IR Inten    --     17.7307                 6.4934                 0.1212

                     97                     98                     99
                      A                      A                      A
 Frequencies --   1492.1230              1500.1463              1503.5048
 Red. masses --      1.8352                 1.0780                 1.1488
 Frc consts  --      2.4073                 1.4293                 1.5301
 IR Inten    --     18.4100                 3.4920                 7.8583

                    100                    101                    102
                      A                      A                      A
 Frequencies --   1505.1396              1508.5497              1511.2411
 Red. masses --      1.0429                 1.0766                 1.1094
 Frc consts  --      1.3921                 1.4435                 1.4928
 IR Inten    --     18.0424                12.8738                 9.4240

                    103                    104                    105
                      A                      A                      A
 Frequencies --   1514.0738              1515.2091              1522.8943
 Red. masses --      1.0754                 1.0799                 1.0729
 Frc consts  --      1.4525                 1.4608                 1.4660
 IR Inten    --      1.5107                 5.2881                19.0878

                    106                    107                    108
                      A                      A                      A
 Frequencies --   1529.0950              1538.6874              1548.3605
 Red. masses --      1.0686                 1.8946                 1.2559
 Frc consts  --      1.4720                 2.6428                 1.7740
 IR Inten    --      3.7206               105.9346                35.9729

                    109                    110                    111
                      A                      A                      A
 Frequencies --   1632.7039              1671.2641              1751.5698
 Red. masses --      6.4786                 5.8834                 6.5169
 Frc consts  --     10.1753                 9.6822                11.7801
 IR Inten    --     83.6978                87.5845                13.9825

                    112                    113                    114
                      A                      A                      A
 Frequencies --   2961.9165              3015.6153              3032.0740
 Red. masses --      1.0722                 1.0829                 1.0652
 Frc consts  --      5.5421                 5.8024                 5.7695
 IR Inten    --    115.7178                68.2523                54.8639

                    115                    116                    117
                      A                      A                      A
 Frequencies --   3036.6080              3043.7789              3053.1396
 Red. masses --      1.0383                 1.0408                 1.0575
 Frc consts  --      5.6412                 5.6812                 5.8081
 IR Inten    --     43.0737                86.1205                46.6177

                    118                    119                    120
                      A                      A                      A
 Frequencies --   3061.4114              3066.0943              3068.2559
 Red. masses --      1.0393                 1.0646                 1.0454
 Frc consts  --      5.7390                 5.8967                 5.7986
 IR Inten    --     55.9752                73.8857                43.4741

                    121                    122                    123
                      A                      A                      A
 Frequencies --   3073.1189              3077.9081              3082.5336
 Red. masses --      1.0954                 1.0843                 1.1002
 Frc consts  --      6.0949                 6.0522                 6.1592
 IR Inten    --     36.2888                89.8247                27.8487

                    124                    125                    126
                      A                      A                      A
 Frequencies --   3085.9240              3093.1745              3116.9717
 Red. masses --      1.0998                 1.1007                 1.1008
 Frc consts  --      6.1707                 6.2050                 6.3012
 IR Inten    --     59.5337                94.6766                75.3061

                    127                    128                    129
                      A                      A                      A
 Frequencies --   3121.9453              3126.5258              3128.1339
 Red. masses --      1.0875                 1.1003                 1.1001
 Frc consts  --      6.2451                 6.3370                 6.3424
 IR Inten    --     20.3185                32.9823                90.3178

                    130                    131                    132
                      A                      A                      A
 Frequencies --   3131.6976              3144.3379              3149.2072
 Red. masses --      1.1002                 1.0997                 1.0911
 Frc consts  --      6.3576                 6.4059                 6.3754
 IR Inten    --     39.1085                80.4710                30.1794

                    133                    134                    135
                      A                      A                      A
 Frequencies --   3149.5674              3151.0504              3182.6088
 Red. masses --      1.0998                 1.0921                 1.0878
 Frc consts  --      6.4277                 6.3891                 6.4919
 IR Inten    --     36.9317                88.3475                31.9445

                    136                    137                    138
                      A                      A                      A
 Frequencies --   3205.7478              3229.8440              3705.3235
 Red. masses --      1.0941                 1.0886                 1.0662
 Frc consts  --      6.6247                 6.6910                 8.6250
 IR Inten    --     37.4485                20.5787               192.6676

 - Thermochemistry -
 -------------------
 Temperature   298.150 Kelvin.  Pressure   1.00000 Atm.
 Atom     1 has atomic number  6 and mass  12.00000

 Molecular mass:   285.20926 amu.
 Principal axes and moments of inertia in atomic units:
                           1         2         3
     Eigenvalues --  2811.09041********************
           X            0.99997  -0.00738  -0.00027
           Y            0.00738   0.99997   0.00214
           Z            0.00026  -0.00214   1.00000
 This molecule is an asymmetric top.
 Rotational symmetry number  1.
 Warning -- assumption of classical behavior for rotation
           may cause significant error
 Rotational temperatures (Kelvin)      0.03081     0.00758     0.00702
 Rotational constants (GHZ):           0.64201     0.15801     0.14626
 Zero-point vibrational energy    1120677.1 (Joules/Mol)
                                  267.84825 (Kcal/Mol)
 Warning -- explicit consideration of  34 degrees of freedom as
           vibrations may cause significant error
 Vibrational temperatures:     28.22    55.60    62.48   117.56   142.19
          (Kelvin)            167.71   217.83   242.12   272.83   293.63
                              311.99   342.40   363.81   377.97   392.09
                              410.17   442.12   460.69   480.72   499.29
                              533.29   556.60   571.05   579.56   602.59
                              633.25   642.26   688.12   688.73   703.70
                              725.84   758.22   771.41   832.61   918.04
                              953.23  1007.87  1031.50  1049.99  1079.61
                             1142.88  1147.43  1156.90  1177.51  1225.78
                             1258.27  1280.74  1310.53  1333.63  1358.10
                             1373.88  1399.31  1411.85  1420.58  1433.23
                             1474.62  1491.00  1492.67  1507.67  1525.77
                             1547.23  1572.23  1599.97  1600.87  1610.43
                             1634.99  1659.08  1666.95  1691.02  1724.42
                             1745.01  1753.65  1763.76  1786.66  1800.46
                             1831.47  1833.88  1857.32  1886.75  1899.37
                             1925.76  1944.80  1960.96  1968.43  1977.90
                             1982.69  2012.89  2021.49  2046.89  2051.79
                             2060.65  2065.22  2068.94  2090.78  2128.29
                             2143.93  2146.83  2158.38  2163.21  2165.56
                             2170.47  2174.34  2178.41  2180.05  2191.11
                             2200.03  2213.83  2227.75  2349.10  2404.58
                             2520.12  4261.54  4338.80  4362.48  4369.00
                             4379.32  4392.79  4404.69  4411.43  4414.54
                             4421.53  4428.42  4435.08  4439.96  4450.39
                             4484.63  4491.78  4498.37  4500.69  4505.81
                             4524.00  4531.01  4531.53  4533.66  4579.06
                             4612.36  4647.03  5331.13

 Zero-point correction=                           0.426843 (Hartree/Particle)
 Thermal correction to Energy=                    0.447142
 Thermal correction to Enthalpy=                  0.448086
 Thermal correction to Gibbs Free Energy=         0.378605
 Sum of electronic and zero-point Energies=           -869.816169
 Sum of electronic and thermal Energies=              -869.795870
 Sum of electronic and thermal Enthalpies=            -869.794926
 Sum of electronic and thermal Free Energies=         -869.864407

                     E (Thermal)             CV                S
                      KCal/Mol        Cal/Mol-Kelvin    Cal/Mol-Kelvin
 Total                  280.586             82.047            146.235
 Electronic               0.000              0.000              0.000
 Translational            0.889              2.981             42.842
 Rotational               0.889              2.981             34.337
 Vibrational            278.808             76.085             69.055
 Vibration     1          0.593              1.986              6.673
 Vibration     2          0.594              1.981              5.327
 Vibration     3          0.595              1.980              5.096
 Vibration     4          0.600              1.962              3.849
 Vibration     5          0.604              1.950              3.477
 Vibration     6          0.608              1.936              3.157
 Vibration     7          0.619              1.901              2.655
 Vibration     8          0.625              1.882              2.455
 Vibration     9          0.633              1.854              2.231
 Vibration    10          0.640              1.834              2.096
 Vibration    11          0.646              1.815              1.985
 Vibration    12          0.656              1.782              1.818
 Vibration    13          0.664              1.758              1.711
 Vibration    14          0.670              1.741              1.644
 Vibration    15          0.676              1.724              1.580
 Vibration    16          0.683              1.701              1.503
 Vibration    17          0.697              1.660              1.377
 Vibration    18          0.706              1.635              1.309
 Vibration    19          0.716              1.607              1.240
 Vibration    20          0.725              1.581              1.180
 Vibration    21          0.743              1.532              1.077
 Vibration    22          0.755              1.498              1.012
 Vibration    23          0.763              1.477              0.974
 Vibration    24          0.768              1.464              0.952
 Vibration    25          0.782              1.429              0.896
 Vibration    26          0.800              1.383              0.826
 Vibration    27          0.806              1.369              0.807
 Vibration    28          0.835              1.298              0.715
 Vibration    29          0.835              1.297              0.714
 Vibration    30          0.845              1.274              0.686
 Vibration    31          0.860              1.240              0.647
 Vibration    32          0.882              1.190              0.594
 Vibration    33          0.891              1.170              0.574
 Vibration    34          0.935              1.077              0.488

 Optimization completed.
    -- Stationary point found.
 Normal termination of Gaussian 16 at Wed Mar  2 03:40:49 2022.

 ------------------------------------------
 #p b3lyp/6-31G(d) geom=allcheck guess=read
 ------------------------------------------

 Structure from the checkpoint file:  "76.n.pdb.xyz.mst.wat.chk"
 ------------
 76.n.pdb.xyz
 ------------
 Charge =  0 Multiplicity = 1

 SCF Done:  E(RB3LYP) =  -870.231057223     A.U. after   11 cycles
 Normal termination of Gaussian 16 at Wed Mar  2 03:45:46 2022.
 Gaussian 16:  ES64L-G16RevA.03 25-Dec-2016

 ----------------------------------------------------------------------
 #p b3lyp/6-31G(d) scrf=(iefpcm,read,solvent=water) geom=allcheck guess
 =read
 ----------------------------------------------------------------------

 Structure from the checkpoint file:  "76.n.pdb.xyz.mst.wat.chk"
 ------------
 76.n.pdb.xyz
 ------------
 Charge =  0 Multiplicity = 1

                         Standard orientation:
 ---------------------------------------------------------------------
 Center     Atomic      Atomic             Coordinates (Angstroms)
 Number     Number       Type             X           Y           Z
 ---------------------------------------------------------------------
      1          6           0        0.649655    2.778642    0.904171
      2          6           0       -0.253021    1.541090    0.967062
      3          6           0        0.528649    0.226016    1.205485
      4          6           0       -0.474206   -0.842900    1.669520
      5          6           0       -1.795497   -0.839072    0.921192
      6          6           0       -2.700942   -1.884550    1.140205
      7          6           0       -3.937188   -1.942252    0.502573
      8          6           0       -4.284330   -0.923013   -0.388740
      9          8           0       -5.473640   -0.897172   -1.064248
     10          6           0       -3.393921    0.128443   -0.617638
     11          6           0       -2.152696    0.194079    0.028559
     12          6           0       -1.171197    1.338807   -0.275365
     13          6           0       -1.906447    2.643744   -0.620321
     14          6           0       -0.277551    0.921586   -1.477134
     15          6           0        0.532199   -0.344788   -1.176864
     16          7           0        1.322582   -0.259180    0.058755
     17          6           0        2.618416    0.417464   -0.138968
     18          6           0        3.630448   -0.516899   -0.750513
     19          6           0        4.881573   -0.767381   -0.335601
     20          6           0        5.757767   -1.737219   -1.090055
     21          6           0        5.534711   -0.135872    0.867619
     22          1           0        1.348682    2.770319    1.746845
     23          1           0        0.067167    3.701127    0.968518
     24          1           0        1.241327    2.823053   -0.013493
     25          1           0       -0.910551    1.673927    1.838684
     26          1           0        1.244346    0.387411    2.017348
     27          1           0       -0.002906   -1.830360    1.601605
     28          1           0       -0.673842   -0.672975    2.735737
     29          1           0       -2.428403   -2.679606    1.829631
     30          1           0       -4.618917   -2.765912    0.690650
     31          1           0       -6.001316   -1.678822   -0.819411
     32          1           0       -3.696055    0.899594   -1.315774
     33          1           0       -1.185519    3.443126   -0.804832
     34          1           0       -2.514592    2.539816   -1.522987
     35          1           0       -2.562710    2.960235    0.198022
     36          1           0        0.402664    1.748041   -1.714616
     37          1           0       -0.901816    0.758219   -2.363212
     38          1           0        1.211778   -0.565810   -2.003991
     39          1           0       -0.149847   -1.197676   -1.096290
     40          1           0        2.518542    1.315023   -0.773538
     41          1           0        2.963623    0.770328    0.834878
     42          1           0        3.288399   -1.037549   -1.645013
     43          1           0        6.082607   -2.560981   -0.441753
     44          1           0        6.672472   -1.248001   -1.449344
     45          1           0        5.237187   -2.163742   -1.951969
     46          1           0        6.405548    0.459455    0.565812
     47          1           0        4.863661    0.515901    1.430138
     48          1           0        5.910978   -0.908065    1.549927
 ---------------------------------------------------------------------

 SCF Done:  E(RB3LYP) =  -870.242077292     A.U. after   11 cycles

 The electronic state is 1-A.
 Alpha  occ. eigenvalues --  -19.17100 -14.31603 -10.24401 -10.20573 -10.20361
 Alpha  occ. eigenvalues --  -10.19745 -10.19605 -10.19087 -10.18985 -10.18537
 Alpha  occ. eigenvalues --  -10.18480 -10.18326 -10.18042 -10.17851 -10.17801
 Alpha  occ. eigenvalues --  -10.17547 -10.17426 -10.17398 -10.17225 -10.16849
 Alpha  occ. eigenvalues --  -10.16806  -1.04974  -0.91975  -0.85727  -0.81652
 Alpha  occ. eigenvalues --   -0.80302  -0.78237  -0.75044  -0.73981  -0.72734
 Alpha  occ. eigenvalues --   -0.69907  -0.68796  -0.68324  -0.65876  -0.63377
 Alpha  occ. eigenvalues --   -0.61385  -0.60305  -0.58531  -0.57101  -0.53692
 Alpha  occ. eigenvalues --   -0.51295  -0.50276  -0.49053  -0.47853  -0.46930
 Alpha  occ. eigenvalues --   -0.45415  -0.44662  -0.44412  -0.43725  -0.43237
 Alpha  occ. eigenvalues --   -0.42825  -0.42347  -0.41535  -0.40976  -0.40398
 Alpha  occ. eigenvalues --   -0.40054  -0.39041  -0.38358  -0.38042  -0.37962
 Alpha  occ. eigenvalues --   -0.37688  -0.36962  -0.36406  -0.35979  -0.35770
 Alpha  occ. eigenvalues --   -0.35382  -0.34447  -0.33509  -0.33299  -0.32466
 Alpha  occ. eigenvalues --   -0.31537  -0.31193  -0.29555  -0.29234  -0.24298
 Alpha  occ. eigenvalues --   -0.23356  -0.21242  -0.19842
 Alpha virt. eigenvalues --   -0.00134   0.01563   0.02974   0.07982   0.09850
 Alpha virt. eigenvalues --    0.10102   0.10262   0.11283   0.11306   0.11648
 Alpha virt. eigenvalues --    0.13647   0.13883   0.14195   0.14701   0.15194

 Mulliken charges:
               1
     1  C   -0.480239
     2  C   -0.082088
     3  C    0.005081
     4  C   -0.345939
     5  C    0.102324
     6  C   -0.222138
     7  C   -0.212500
     8  C    0.341725
     9  O   -0.686340
    10  C   -0.261039
    11  C    0.101092
    12  C    0.015568
    13  C   -0.479424
    14  C   -0.272131
    15  C   -0.169279
    16  N   -0.419374
    17  C   -0.178153
    18  C   -0.186375
    19  C    0.173286
    20  C   -0.515827
    21  C   -0.523029
    22  H    0.145512
    23  H    0.152816
    24  H    0.153982
    25  H    0.126589
    26  H    0.131557
    27  H    0.149588
    28  H    0.157874
    29  H    0.139242
    30  H    0.148462
    31  H    0.457441
    32  H    0.135365
    33  H    0.153502
    34  H    0.151734
    35  H    0.145803
    36  H    0.141421
    37  H    0.136489
    38  H    0.151099
    39  H    0.148992
    40  H    0.137343
    41  H    0.150407
    42  H    0.127907
    43  H    0.156668
    44  H    0.156623
    45  H    0.156667
    46  H    0.161540
    47  H    0.161056
    48  H    0.159118
 Sum of Mulliken charges =  -0.00000

 Dipole moment (field-independent basis, Debye):
    X=              0.1218    Y=             -0.3507    Z=              0.9031  Tot=              0.9764
 Quadrupole moment (field-independent basis, Debye-Ang):
   XX=           -114.4427   YY=           -121.5071   ZZ=           -125.9478
   XY=             12.3563   XZ=             -1.3973   YZ=             -0.5565

 Normal termination of Gaussian 16 at Wed Mar  2 03:51:40 2022.
