 Gaussian 16, Revision A.03,

 ----------------------------------------------------------------------
 #p b3lyp/6-31G(d) opt=(MaxStep=10,MaxCycles=1000) freq scf=(MaxCycle=2
 000,NoVarAcc,NoIncFock) scrf=(iefpcm,read,solvent=water)
 ----------------------------------------------------------------------

 ------------
 77.n.pdb.xyz
 ------------
 Symbolic Z-matrix:
 Charge =  0 Multiplicity = 1

 SCF Done:  E(RB3LYP) =  -1223.16189437     A.U. after   13 cycles
 SCF Done:  E(RB3LYP) =  -1223.16550430     A.U. after   11 cycles
 SCF Done:  E(RB3LYP) =  -1223.16639800     A.U. after   11 cycles
 SCF Done:  E(RB3LYP) =  -1223.16676035     A.U. after   10 cycles
 SCF Done:  E(RB3LYP) =  -1223.16687835     A.U. after   10 cycles
 SCF Done:  E(RB3LYP) =  -1223.16696294     A.U. after   10 cycles
 SCF Done:  E(RB3LYP) =  -1223.16697511     A.U. after    8 cycles
 SCF Done:  E(RB3LYP) =  -1223.16697307     A.U. after    8 cycles
 SCF Done:  E(RB3LYP) =  -1223.16697319     A.U. after    8 cycles
 SCF Done:  E(RB3LYP) =  -1223.16697512     A.U. after    8 cycles
 SCF Done:  E(RB3LYP) =  -1223.16697301     A.U. after    8 cycles
 Optimization completed.
    -- Stationary point found.
 Normal termination of Gaussian 16 at Wed Mar  2 03:46:44 2022.

 --------------------------------------------------------------------
 #P Geom=AllCheck Guess=TCheck SCRF=Check GenChk RB3LYP/6-31G(d) Freq
 --------------------------------------------------------------------

 Structure from the checkpoint file:  "77.n.pdb.xyz.mst.wat.chk"
 ------------
 77.n.pdb.xyz
 ------------
 Charge =  0 Multiplicity = 1

 SCF Done:  E(RB3LYP) =  -1223.16697301     A.U. after    1 cycles

  Exact polarizability: 288.111  12.122 315.748 -31.014  27.330 159.135
 Approx polarizability: 312.365  10.688 365.123 -39.650  32.559 191.115

                      1                      2                      3
                      A                      A                      A
 Frequencies --     34.9297                47.2834                70.9646
 Red. masses --      3.8697                 6.9834                10.6197
 Frc consts  --      0.0028                 0.0092                 0.0315
 IR Inten    --      0.2742                 1.5418                 3.8780

                      4                      5                      6
                      A                      A                      A
 Frequencies --     73.4714               120.9438               151.1720
 Red. masses --      5.0570                 6.5224                 5.2482
 Frc consts  --      0.0161                 0.0562                 0.0707
 IR Inten    --      1.1126                 3.7433                 1.6974

                      7                      8                      9
                      A                      A                      A
 Frequencies --    178.9273               205.8746               254.2997
 Red. masses --      6.6489                 5.8512                 5.8666
 Frc consts  --      0.1254                 0.1461                 0.2235
 IR Inten    --      2.6973                 0.0626                 1.3045

                     10                     11                     12
                      A                      A                      A
 Frequencies --    287.4746               322.7040               331.1615
 Red. masses --      4.6330                11.4251                 5.5062
 Frc consts  --      0.2256                 0.7010                 0.3558
 IR Inten    --     11.5274                 1.4823                 5.2228

                     13                     14                     15
                      A                      A                      A
 Frequencies --    334.8370               394.3925               415.5596
 Red. masses --      6.3802                 5.0114                 2.9532
 Frc consts  --      0.4215                 0.4593                 0.3005
 IR Inten    --      5.8629                 6.9892                 0.1491

                     16                     17                     18
                      A                      A                      A
 Frequencies --    417.3351               456.3649               470.7839
 Red. masses --      4.1540                 4.5603                 5.2440
 Frc consts  --      0.4263                 0.5596                 0.6848
 IR Inten    --      4.1457                 5.6859                 5.8528

                     19                     20                     21
                      A                      A                      A
 Frequencies --    512.3206               522.2735               557.7226
 Red. masses --      4.2649                 3.5156                 3.5854
 Frc consts  --      0.6595                 0.5650                 0.6571
 IR Inten    --     22.1262                 2.9990                17.5330

                     22                     23                     24
                      A                      A                      A
 Frequencies --    576.8789               601.5147               631.4242
 Red. masses --      3.8293                 1.5329                 6.3004
 Frc consts  --      0.7508                 0.3268                 1.4800
 IR Inten    --     66.8222               127.8169                 1.2091

                     25                     26                     27
                      A                      A                      A
 Frequencies --    656.3403               672.4449               699.1766
 Red. masses --      4.2378                 5.2910                 6.2477
 Frc consts  --      1.0756                 1.4096                 1.7995
 IR Inten    --     35.1606                16.7071                 3.8068

                     28                     29                     30
                      A                      A                      A
 Frequencies --    708.3252               725.0756               753.5594
 Red. masses --      1.8346                 5.8069                 2.9884
 Frc consts  --      0.5423                 1.7987                 0.9998
 IR Inten    --     42.4878                43.2882                22.3191

                     31                     32                     33
                      A                      A                      A
 Frequencies --    795.5623               804.0730               843.5445
 Red. masses --      4.2786                 2.9464                 1.5760
 Frc consts  --      1.5955                 1.1224                 0.6607
 IR Inten    --     14.6684                46.0554                55.9086

                     34                     35                     36
                      A                      A                      A
 Frequencies --    863.9563               875.6635               907.7596
 Red. masses --      1.2577                 4.6322                 1.4846
 Frc consts  --      0.5531                 2.0927                 0.7208
 IR Inten    --      3.8604                40.6661                19.6574

                     37                     38                     39
                      A                      A                      A
 Frequencies --    929.0292               945.5297               961.7776
 Red. masses --      3.4880                 1.5057                 4.3258
 Frc consts  --      1.7737                 0.7931                 2.3576
 IR Inten    --     10.1823                 1.3627                40.7221

                     40                     41                     42
                      A                      A                      A
 Frequencies --    975.0797               983.8152              1011.7067
 Red. masses --      1.3173                 1.3604                 1.2737
 Frc consts  --      0.7379                 0.7758                 0.7681
 IR Inten    --      1.3661                 3.2795                 0.2829

                     43                     44                     45
                      A                      A                      A
 Frequencies --   1016.3782              1029.4558              1045.0459
 Red. masses --      6.1159                 2.2268                 5.5537
 Frc consts  --      3.7224                 1.3904                 3.5736
 IR Inten    --      1.9775                47.2248                15.6080

                     46                     47                     48
                      A                      A                      A
 Frequencies --   1055.5735              1107.3331              1116.9187
 Red. masses --      2.0761                 1.5445                 2.1309
 Frc consts  --      1.3629                 1.1158                 1.5663
 IR Inten    --     15.3850                 9.4602                33.8895

                     49                     50                     51
                      A                      A                      A
 Frequencies --   1153.5836              1186.4972              1188.4231
 Red. masses --      1.7610                 1.4809                 1.2537
 Frc consts  --      1.3808                 1.2283                 1.0432
 IR Inten    --     25.9595                 3.0316                 0.7276

                     52                     53                     54
                      A                      A                      A
 Frequencies --   1200.4560              1229.1336              1264.2301
 Red. masses --      1.2500                 1.4660                 2.5227
 Frc consts  --      1.0613                 1.3049                 2.3755
 IR Inten    --     13.2856                62.4885                84.4234

                     55                     56                     57
                      A                      A                      A
 Frequencies --   1282.1621              1316.1248              1340.3401
 Red. masses --      1.4123                 3.8926                 1.4185
 Frc consts  --      1.3680                 3.9727                 1.5015
 IR Inten    --     29.8980                48.2370                40.0071

                     58                     59                     60
                      A                      A                      A
 Frequencies --   1341.5946              1358.2834              1361.7829
 Red. masses --      2.0074                 3.2540                 3.4708
 Frc consts  --      2.1288                 3.5371                 3.7922
 IR Inten    --     20.7742               285.9624                19.4211

                     61                     62                     63
                      A                      A                      A
 Frequencies --   1368.1226              1418.8720              1490.8088
 Red. masses --      5.9358                 2.5809                 2.2123
 Frc consts  --      6.5461                 3.0613                 2.8969
 IR Inten    --     31.1030                21.3299                15.4971

                     64                     65                     66
                      A                      A                      A
 Frequencies --   1502.6336              1505.3325              1518.6236
 Red. masses --      1.2258                 1.8271                 2.6398
 Frc consts  --      1.6307                 2.4393                 3.5869
 IR Inten    --     10.2393               106.9489               175.0547

                     67                     68                     69
                      A                      A                      A
 Frequencies --   1537.5179              1615.2449              1633.5127
 Red. masses --      2.2985                 6.1296                 5.5913
 Frc consts  --      3.2013                 9.4223                 8.7904
 IR Inten    --      1.4137                45.2348                16.7605

                     70                     71                     72
                      A                      A                      A
 Frequencies --   1651.3953              1655.8930              1671.6342
 Red. masses --      6.1490                 6.0406                 8.9972
 Frc consts  --      9.8799                 9.7588                14.8128
 IR Inten    --     12.1138                48.2279               144.3658

                     73                     74                     75
                      A                      A                      A
 Frequencies --   1761.0672              3035.4839              3148.7136
 Red. masses --      8.2697                 1.0680                 1.0963
 Frc consts  --     15.1109                 5.7980                 6.4038
 IR Inten    --   1230.4887                43.0808                48.6122

                     76                     77                     78
                      A                      A                      A
 Frequencies --   3203.9283              3212.2272              3222.0728
 Red. masses --      1.0857                 1.0890                 1.0926
 Frc consts  --      6.5666                 6.6207                 6.6830
 IR Inten    --      0.1734                16.0388                44.9954

                     79                     80                     81
                      A                      A                      A
 Frequencies --   3223.2940              3230.2497              3233.5238
 Red. masses --      1.0902                 1.0930                 1.0961
 Frc consts  --      6.6736                 6.7193                 6.7524
 IR Inten    --      8.8884                39.0548                10.1829

                     82                     83                     84
                      A                      A                      A
 Frequencies --   3244.6544              3250.0296              3556.1286
 Red. masses --      1.0946                 1.0915                 1.0777
 Frc consts  --      6.7898                 6.7928                 8.0297
 IR Inten    --      5.6886                 1.5297               128.2979

 - Thermochemistry -
 -------------------
 Temperature   298.150 Kelvin.  Pressure   1.00000 Atm.
 Atom     1 has atomic number 17 and mass  34.96885

 Molecular mass:   270.05599 amu.
 Principal axes and moments of inertia in atomic units:
                           1         2         3
     Eigenvalues --  5066.628345647.901009739.61453
           X            0.99052   0.13729  -0.00479
           Y           -0.13721   0.99044   0.01449
           Z            0.00673  -0.01370   0.99988
 This molecule is an asymmetric top.
 Rotational symmetry number  1.
 Warning -- assumption of classical behavior for rotation
           may cause significant error
 Rotational temperatures (Kelvin)      0.01709     0.01534     0.00889
 Rotational constants (GHZ):           0.35620     0.31954     0.18530
 Zero-point vibrational energy     601526.1 (Joules/Mol)
                                  143.76819 (Kcal/Mol)
 Warning -- explicit consideration of  23 degrees of freedom as
           vibrations may cause significant error
 Vibrational temperatures:     50.26    68.03   102.10   105.71   174.01
          (Kelvin)            217.50   257.44   296.21   365.88   413.61
                              464.30   476.47   481.76   567.44   597.90
                              600.45   656.61   677.35   737.12   751.44
                              802.44   830.00   865.45   908.48   944.33
                              967.50  1005.96  1019.12  1043.22  1084.20
                             1144.64  1156.88  1213.67  1243.04  1259.88
                             1306.06  1336.67  1360.41  1383.78  1402.92
                             1415.49  1455.62  1462.34  1481.16  1503.59
                             1518.73  1593.21  1607.00  1659.75  1707.10
                             1709.88  1727.19  1768.45  1818.95  1844.75
                             1893.61  1928.45  1930.26  1954.27  1959.30
                             1968.42  2041.44  2144.94  2161.95  2165.84
                             2184.96  2212.15  2323.98  2350.26  2375.99
                             2382.46  2405.11  2533.78  4367.38  4530.30
                             4609.74  4621.68  4635.84  4637.60  4647.61
                             4652.32  4668.33  4676.07  5116.48

 Zero-point correction=                           0.229109 (Hartree/Particle)
 Thermal correction to Energy=                    0.243982
 Thermal correction to Enthalpy=                  0.244927
 Thermal correction to Gibbs Free Energy=         0.185856
 Sum of electronic and zero-point Energies=          -1222.937864
 Sum of electronic and thermal Energies=             -1222.922991
 Sum of electronic and thermal Enthalpies=           -1222.922046
 Sum of electronic and thermal Free Energies=        -1222.981117

                     E (Thermal)             CV                S
                      KCal/Mol        Cal/Mol-Kelvin    Cal/Mol-Kelvin
 Total                  153.101             58.975            124.324
 Electronic               0.000              0.000              0.000
 Translational            0.889              2.981             42.679
 Rotational               0.889              2.981             33.988
 Vibrational            151.324             53.014             47.657
 Vibration     1          0.594              1.983              5.528
 Vibration     2          0.595              1.979              4.928
 Vibration     3          0.598              1.968              4.126
 Vibration     4          0.599              1.967              4.058
 Vibration     5          0.609              1.932              3.085
 Vibration     6          0.619              1.901              2.657
 Vibration     7          0.629              1.868              2.340
 Vibration     8          0.640              1.832              2.080
 Vibration     9          0.665              1.756              1.701
 Vibration    10          0.685              1.697              1.489
 Vibration    11          0.708              1.630              1.296
 Vibration    12          0.714              1.613              1.254
 Vibration    13          0.716              1.606              1.237
 Vibration    14          0.761              1.482              0.983
 Vibration    15          0.779              1.436              0.907
 Vibration    16          0.780              1.433              0.901
 Vibration    17          0.815              1.347              0.777
 Vibration    18          0.828              1.315              0.735
 Vibration    19          0.867              1.223              0.628
 Vibration    20          0.877              1.201              0.605
 Vibration    21          0.913              1.123              0.528
 Vibration    22          0.933              1.081              0.491
 Vibration    23          0.960              1.029              0.447

 Optimization completed.
    -- Stationary point found.
 Normal termination of Gaussian 16 at Wed Mar  2 04:20:28 2022.

 ------------------------------------------
 #p b3lyp/6-31G(d) geom=allcheck guess=read
 ------------------------------------------

 Structure from the checkpoint file:  "77.n.pdb.xyz.mst.wat.chk"
 ------------
 77.n.pdb.xyz
 ------------
 Charge =  0 Multiplicity = 1

 SCF Done:  E(RB3LYP) =  -1223.15019085     A.U. after   12 cycles
 Normal termination of Gaussian 16 at Wed Mar  2 04:23:08 2022.
 Gaussian 16:  ES64L-G16RevA.03 25-Dec-2016

 ----------------------------------------------------------------------
 #p b3lyp/6-31G(d) scrf=(iefpcm,read,solvent=water) geom=allcheck guess
 =read
 ----------------------------------------------------------------------

 Structure from the checkpoint file:  "77.n.pdb.xyz.mst.wat.chk"
 ------------
 77.n.pdb.xyz
 ------------
 Charge =  0 Multiplicity = 1

                         Standard orientation:
 ---------------------------------------------------------------------
 Center     Atomic      Atomic             Coordinates (Angstroms)
 Number     Number       Type             X           Y           Z
 ---------------------------------------------------------------------
      1         17           0       -1.913326    3.710289   -0.598673
      2          6           0       -1.838761    2.008096   -0.168276
      3          6           0       -2.936634    1.408057    0.449988
      4          6           0       -2.876765    0.057494    0.759374
      5          6           0       -1.735247   -0.705430    0.463770
      6          7           0       -1.741404   -2.063478    0.820270
      7          6           0       -1.261786   -3.110151    0.070293
      8          8           0       -1.427701   -4.276104    0.408264
      9          6           0       -0.508678   -2.686805   -1.184188
     10          7           0        0.732252   -2.015604   -0.821149
     11          6           0        0.661904   -0.812882   -0.363981
     12          6           0        1.949945   -0.128108   -0.052432
     13          6           0        2.056045    0.798588    0.996522
     14          6           0        3.285049    1.382188    1.304140
     15          6           0        4.421329    1.055920    0.563123
     16          6           0        4.325488    0.136850   -0.485448
     17          6           0        3.101571   -0.453469   -0.787583
     18          6           0       -0.609562   -0.080400   -0.120658
     19          6           0       -0.688523    1.287040   -0.439148
     20          1           0       -3.825880    1.984956    0.672447
     21          1           0       -3.728250   -0.425415    1.225311
     22          1           0       -2.356141   -2.335891    1.582870
     23          1           0       -0.280286   -3.587847   -1.754230
     24          1           0       -1.162386   -2.038095   -1.783220
     25          1           0        1.179547    1.050782    1.581907
     26          1           0        3.353555    2.089253    2.124382
     27          1           0        5.375595    1.515396    0.798746
     28          1           0        5.204362   -0.116092   -1.068902
     29          1           0        3.018710   -1.168392   -1.598213
     30          1           0        0.161124    1.776897   -0.896587
 ---------------------------------------------------------------------

 SCF Done:  E(RB3LYP) =  -1223.16602574     A.U. after   11 cycles

 The electronic state is 1-A.
 Alpha  occ. eigenvalues -- -101.55787 -19.13268 -14.37973 -14.33839 -10.30505
 Alpha  occ. eigenvalues --  -10.26028 -10.25790 -10.25140 -10.22259 -10.22132
 Alpha  occ. eigenvalues --  -10.21613 -10.21591 -10.21077 -10.20621 -10.19842
 Alpha  occ. eigenvalues --  -10.19704 -10.19572 -10.19532 -10.19482  -9.47413
 Alpha  occ. eigenvalues --   -7.23803  -7.22844  -7.22814  -1.05065  -0.96211
 Alpha  occ. eigenvalues --   -0.93032  -0.89840  -0.86039  -0.84275  -0.78920
 Alpha  occ. eigenvalues --   -0.76554  -0.75044  -0.74672  -0.72034  -0.66758
 Alpha  occ. eigenvalues --   -0.63381  -0.61485  -0.61164  -0.58849  -0.56637
 Alpha  occ. eigenvalues --   -0.54284  -0.51819  -0.49960  -0.49405  -0.48420
 Alpha  occ. eigenvalues --   -0.47488  -0.46530  -0.45261  -0.44513  -0.44066
 Alpha  occ. eigenvalues --   -0.43148  -0.42488  -0.41232  -0.40503  -0.39994
 Alpha  occ. eigenvalues --   -0.39633  -0.38208  -0.37774  -0.35615  -0.34906
 Alpha  occ. eigenvalues --   -0.34742  -0.32971  -0.32320  -0.30084  -0.28003
 Alpha  occ. eigenvalues --   -0.27156  -0.26396  -0.25697  -0.24372  -0.23377
 Alpha virt. eigenvalues --   -0.06073  -0.02870  -0.02374  -0.00514   0.01656
 Alpha virt. eigenvalues --    0.02240   0.04663   0.10035   0.10706   0.12450
 Alpha virt. eigenvalues --    0.13305   0.14180   0.14568   0.15451   0.16000

 Mulliken charges:
               1
     1  Cl  -0.033720
     2  C   -0.071022
     3  C   -0.136863
     4  C   -0.171810
     5  C    0.299474
     6  N   -0.685657
     7  C    0.580070
     8  O   -0.550542
     9  C   -0.250258
    10  N   -0.466367
    11  C    0.218763
    12  C    0.093874
    13  C   -0.183196
    14  C   -0.151255
    15  C   -0.137290
    16  C   -0.151328
    17  C   -0.171243
    18  C    0.076048
    19  C   -0.194621
    20  H    0.184205
    21  H    0.180773
    22  H    0.393506
    23  H    0.176820
    24  H    0.186255
    25  H    0.159140
    26  H    0.156443
    27  H    0.156372
    28  H    0.155806
    29  H    0.153313
    30  H    0.184311
 Sum of Mulliken charges =  -0.00000

 Dipole moment (field-independent basis, Debye):
    X=             -1.9425    Y=              3.9767    Z=              1.3073  Tot=              4.6148
 Quadrupole moment (field-independent basis, Debye-Ang):
   XX=            -94.6212   YY=           -144.6420   ZZ=           -108.9353
   XY=              4.9583   XZ=             -5.4759   YZ=              5.4046

 Normal termination of Gaussian 16 at Wed Mar  2 04:26:05 2022.
