 Gaussian 16, Revision A.03,

 ----------------------------------------------------------------------
 #p b3lyp/6-31G(d) opt=(MaxStep=10,MaxCycles=1000) freq scf=(MaxCycle=2
 000,NoVarAcc,NoIncFock) scrf=(iefpcm,read,solvent=water)
 ----------------------------------------------------------------------

 ------------
 79.n.pdb.xyz
 ------------
 Symbolic Z-matrix:
 Charge =  0 Multiplicity = 1

 SCF Done:  E(RB3LYP) =  -901.113646565     A.U. after   12 cycles
 SCF Done:  E(RB3LYP) =  -901.117143847     A.U. after   10 cycles
 SCF Done:  E(RB3LYP) =  -901.117292372     A.U. after   11 cycles
 SCF Done:  E(RB3LYP) =  -901.118316566     A.U. after   11 cycles
 SCF Done:  E(RB3LYP) =  -901.118524747     A.U. after   10 cycles
 SCF Done:  E(RB3LYP) =  -901.118558471     A.U. after    9 cycles
 SCF Done:  E(RB3LYP) =  -901.118574023     A.U. after    9 cycles
 SCF Done:  E(RB3LYP) =  -901.118599006     A.U. after    9 cycles
 SCF Done:  E(RB3LYP) =  -901.118612037     A.U. after    9 cycles
 SCF Done:  E(RB3LYP) =  -901.118628512     A.U. after    9 cycles
 SCF Done:  E(RB3LYP) =  -901.118850066     A.U. after    9 cycles
 SCF Done:  E(RB3LYP) =  -901.118900615     A.U. after   10 cycles
 SCF Done:  E(RB3LYP) =  -901.118893133     A.U. after    8 cycles
 SCF Done:  E(RB3LYP) =  -901.118874405     A.U. after    9 cycles
 SCF Done:  E(RB3LYP) =  -901.118876473     A.U. after    7 cycles
 SCF Done:  E(RB3LYP) =  -901.118883206     A.U. after    8 cycles
 SCF Done:  E(RB3LYP) =  -901.118880000     A.U. after    7 cycles
 Optimization completed.
    -- Stationary point found.
 Normal termination of Gaussian 16 at Wed Mar  2 07:10:39 2022.

 --------------------------------------------------------------------
 #P Geom=AllCheck Guess=TCheck SCRF=Check GenChk RB3LYP/6-31G(d) Freq
 --------------------------------------------------------------------

 Structure from the checkpoint file:  "79.n.pdb.xyz.mst.wat.chk"
 ------------
 79.n.pdb.xyz
 ------------
 Charge =  0 Multiplicity = 1

 SCF Done:  E(RB3LYP) =  -901.118880000     A.U. after    1 cycles

  Exact polarizability: 313.734   9.584 262.614  27.875   5.750 236.361
 Approx polarizability: 330.659   8.406 285.090  32.925   4.479 276.624

                      1                      2                      3
                      A                      A                      A
 Frequencies --     14.9015                27.1366                31.2528
 Red. masses --      4.2742                 3.5503                 3.7173
 Frc consts  --      0.0006                 0.0015                 0.0021
 IR Inten    --      0.0789                 0.5459                 0.3121

                      4                      5                      6
                      A                      A                      A
 Frequencies --     33.7747                39.4393                66.0636
 Red. masses --      3.8617                 3.5317                 4.2177
 Frc consts  --      0.0026                 0.0032                 0.0108
 IR Inten    --      0.7708                 0.3861                 3.2337

                      7                      8                      9
                      A                      A                      A
 Frequencies --     83.9595               114.0722               125.8902
 Red. masses --      3.5185                 2.5212                 3.7010
 Frc consts  --      0.0146                 0.0193                 0.0346
 IR Inten    --      4.7251                 0.0570                 1.6058

                     10                     11                     12
                      A                      A                      A
 Frequencies --    141.8428               173.0309               201.3351
 Red. masses --      4.8051                 3.8318                 3.7159
 Frc consts  --      0.0570                 0.0676                 0.0887
 IR Inten    --      1.5670                 3.0138                 0.4806

                     13                     14                     15
                      A                      A                      A
 Frequencies --    223.7698               242.9154               248.1600
 Red. masses --      2.6545                 1.2364                 1.1149
 Frc consts  --      0.0783                 0.0430                 0.0405
 IR Inten    --      0.2355                 0.6512                 1.7129

                     16                     17                     18
                      A                      A                      A
 Frequencies --    266.8025               275.6954               305.6118
 Red. masses --      1.2002                 2.5606                 3.4534
 Frc consts  --      0.0503                 0.1147                 0.1900
 IR Inten    --      0.7621                 3.6077                11.5429

                     19                     20                     21
                      A                      A                      A
 Frequencies --    334.5233               348.1587               368.7689
 Red. masses --      3.6594                 4.1044                 2.1380
 Frc consts  --      0.2413                 0.2931                 0.1713
 IR Inten    --      7.0607                 1.9115                10.3850

                     22                     23                     24
                      A                      A                      A
 Frequencies --    398.1931               423.6342               427.2319
 Red. masses --      2.5151                 3.6709                 3.2245
 Frc consts  --      0.2350                 0.3882                 0.3468
 IR Inten    --     12.7924                 4.3025                 0.6776

                     25                     26                     27
                      A                      A                      A
 Frequencies --    431.3437               436.0608               451.7458
 Red. masses --      2.7689                 2.5447                 3.7243
 Frc consts  --      0.3035                 0.2851                 0.4478
 IR Inten    --      1.2072                12.8191                 3.3514

                     28                     29                     30
                      A                      A                      A
 Frequencies --    523.0378               531.4018               540.8983
 Red. masses --      2.6843                 2.8035                 4.0470
 Frc consts  --      0.4327                 0.4664                 0.6976
 IR Inten    --     11.5425                 4.9766                23.0860

                     31                     32                     33
                      A                      A                      A
 Frequencies --    578.9307               625.7791               639.2443
 Red. masses --      4.0785                 4.9724                 6.7460
 Frc consts  --      0.8054                 1.1473                 1.6242
 IR Inten    --      4.6658                12.3922                 0.7992

                     34                     35                     36
                      A                      A                      A
 Frequencies --    657.0336               711.3408               746.8429
 Red. masses --      5.7496                 3.5493                 4.0225
 Frc consts  --      1.4624                 1.0581                 1.3219
 IR Inten    --      3.3693                 1.3276                 3.9059

                     37                     38                     39
                      A                      A                      A
 Frequencies --    753.1415               781.7670               785.3541
 Red. masses --      2.0463                 2.0946                 1.5366
 Frc consts  --      0.6839                 0.7542                 0.5584
 IR Inten    --     13.1575                79.4550                17.5095

                     40                     41                     42
                      A                      A                      A
 Frequencies --    799.5892               832.1684               838.2872
 Red. masses --      2.7437                 1.4408                 1.4730
 Frc consts  --      1.0335                 0.5879                 0.6099
 IR Inten    --     15.2231                31.1813                26.8459

                     43                     44                     45
                      A                      A                      A
 Frequencies --    848.7894               859.1051               873.4741
 Red. masses --      4.6416                 1.3972                 3.6648
 Frc consts  --      1.9702                 0.6076                 1.6474
 IR Inten    --     21.5787                 7.7363                25.2205

                     46                     47                     48
                      A                      A                      A
 Frequencies --    945.8692               965.0769               975.5183
 Red. masses --      1.3629                 1.3332                 1.3679
 Frc consts  --      0.7184                 0.7316                 0.7670
 IR Inten    --     16.1619                 1.9179                 0.4962

                     49                     50                     51
                      A                      A                      A
 Frequencies --    979.4659               995.8472              1000.8174
 Red. masses --      2.1039                 6.5642                 1.2921
 Frc consts  --      1.1892                 3.8355                 0.7625
 IR Inten    --     42.3396                35.6169                 2.1397

                     52                     53                     54
                      A                      A                      A
 Frequencies --   1026.3156              1032.9007              1037.6503
 Red. masses --      2.7063                 2.6057                 2.6901
 Frc consts  --      1.6795                 1.6379                 1.7065
 IR Inten    --      4.9160                41.8397                14.5228

                     55                     56                     57
                      A                      A                      A
 Frequencies --   1062.9770              1064.9044              1070.3451
 Red. masses --      6.4375                 1.7843                 2.3122
 Frc consts  --      4.2857                 1.1922                 1.5607
 IR Inten    --     86.8389                32.0026                30.5751

                     58                     59                     60
                      A                      A                      A
 Frequencies --   1080.1710              1117.2173              1127.3268
 Red. masses --      2.1923                 1.7037                 1.5729
 Frc consts  --      1.5071                 1.2529                 1.1777
 IR Inten    --     11.3116                13.0429                13.7361

                     61                     62                     63
                      A                      A                      A
 Frequencies --   1129.4773              1132.0790              1177.4747
 Red. masses --      1.3324                 1.2965                 1.6771
 Frc consts  --      1.0015                 0.9790                 1.3700
 IR Inten    --      5.3272                23.7249                43.0716

                     64                     65                     66
                      A                      A                      A
 Frequencies --   1187.8744              1192.1764              1195.6854
 Red. masses --      1.2662                 1.1585                 1.1965
 Frc consts  --      1.0527                 0.9701                 1.0079
 IR Inten    --      1.9005                48.2973                20.1208

                     67                     68                     69
                      A                      A                      A
 Frequencies --   1202.2951              1218.0924              1229.4967
 Red. masses --      1.7704                 1.6093                 2.1021
 Frc consts  --      1.5078                 1.4069                 1.8722
 IR Inten    --     22.9922                29.0834                10.8828

                     70                     71                     72
                      A                      A                      A
 Frequencies --   1249.2488              1281.9574              1284.6940
 Red. masses --      2.4077                 1.6590                 3.7472
 Frc consts  --      2.2139                 1.6064                 3.6439
 IR Inten    --     24.5109               204.1648               349.0349

                     73                     74                     75
                      A                      A                      A
 Frequencies --   1293.3370              1302.5559              1324.3332
 Red. masses --      1.5954                 2.4957                 1.5229
 Frc consts  --      1.5724                 2.4948                 1.5737
 IR Inten    --     42.3914                24.5378                38.2357

                     76                     77                     78
                      A                      A                      A
 Frequencies --   1336.9804              1343.0096              1347.7702
 Red. masses --      4.0165                 1.2792                 2.4118
 Frc consts  --      4.2301                 1.3594                 2.5812
 IR Inten    --     37.3666                23.7998                38.8276

                     79                     80                     81
                      A                      A                      A
 Frequencies --   1369.9594              1371.4769              1398.0056
 Red. masses --      1.5310                 1.5925                 1.6735
 Frc consts  --      1.6929                 1.7649                 1.9270
 IR Inten    --     18.5980                59.4408               136.5270

                     82                     83                     84
                      A                      A                      A
 Frequencies --   1434.1850              1439.8844              1460.8208
 Red. masses --      1.4122                 1.8244                 2.2615
 Frc consts  --      1.7114                 2.2286                 2.8434
 IR Inten    --     13.5507                30.2726                19.2997

                     85                     86                     87
                      A                      A                      A
 Frequencies --   1462.4934              1478.1557              1483.3923
 Red. masses --      1.3106                 1.1744                 1.9064
 Frc consts  --      1.6516                 1.5118                 2.4716
 IR Inten    --     28.3937                 0.5896               228.9941

                     88                     89                     90
                      A                      A                      A
 Frequencies --   1491.4574              1503.6547              1505.2014
 Red. masses --      1.1578                 1.0524                 1.2038
 Frc consts  --      1.5174                 1.4019                 1.6069
 IR Inten    --      9.7085                16.7943                27.8716

                     91                     92                     93
                      A                      A                      A
 Frequencies --   1509.2779              1517.3634              1517.8608
 Red. masses --      1.0609                 1.0513                 1.1280
 Frc consts  --      1.4239                 1.4261                 1.5312
 IR Inten    --     23.8467                13.5171                22.2501

                     94                     95                     96
                      A                      A                      A
 Frequencies --   1519.1140              1520.3512              1528.9307
 Red. masses --      1.2233                 1.1966                 1.0533
 Frc consts  --      1.6632                 1.6297                 1.4507
 IR Inten    --     27.1518                28.2824                 8.2346

                     97                     98                     99
                      A                      A                      A
 Frequencies --   1533.6755              1542.5529              1561.2386
 Red. masses --      1.0982                 1.8365                 2.1805
 Frc consts  --      1.5220                 2.5746                 3.1315
 IR Inten    --     76.5675               379.5230               129.8260

                    100                    101                    102
                      A                      A                      A
 Frequencies --   1611.7017              1635.9813              1654.5037
 Red. masses --      5.5952                 6.6107                 5.2482
 Frc consts  --      8.5632                10.4245                 8.4644
 IR Inten    --     78.6264                24.6408               414.6940

                    103                    104                    105
                      A                      A                      A
 Frequencies --   1668.7675              2956.7861              2957.9473
 Red. masses --      5.8765                 1.0597                 1.0674
 Frc consts  --      9.6418                 5.4586                 5.5026
 IR Inten    --     79.4495                67.5064                44.1887

                    106                    107                    108
                      A                      A                      A
 Frequencies --   2965.7273              3052.6126              3058.0516
 Red. masses --      1.0649                 1.0631                 1.0336
 Frc consts  --      5.5185                 5.8365                 5.6947
 IR Inten    --    278.6373                68.8315                80.2420

                    109                    110                    111
                      A                      A                      A
 Frequencies --   3080.1004              3087.6324              3089.6869
 Red. masses --      1.0891                 1.0719                 1.0701
 Frc consts  --      6.0873                 6.0207                 6.0187
 IR Inten    --     44.3873                61.8356                37.5125

                    112                    113                    114
                      A                      A                      A
 Frequencies --   3098.2447              3099.3553              3120.9209
 Red. masses --      1.0853                 1.0828                 1.1071
 Frc consts  --      6.1383                 6.1286                 6.3531
 IR Inten    --      9.1416               110.5460                58.1427

                    115                    116                    117
                      A                      A                      A
 Frequencies --   3133.4779              3144.9959              3163.8972
 Red. masses --      1.1044                 1.1028                 1.0987
 Frc consts  --      6.3888                 6.4267                 6.4798
 IR Inten    --     54.0672                50.9279                34.0644

                    118                    119                    120
                      A                      A                      A
 Frequencies --   3177.1875              3188.3231              3191.8830
 Red. masses --      1.0892                 1.1013                 1.0896
 Frc consts  --      6.4780                 6.5961                 6.5406
 IR Inten    --     59.6803                41.0624                22.1786

                    121                    122                    123
                      A                      A                      A
 Frequencies --   3209.1202              3211.9271              3225.9626
 Red. masses --      1.0890                 1.0871                 1.0943
 Frc consts  --      6.6074                 6.6074                 6.7100
 IR Inten    --     21.6120                12.7020                22.3286

                    124                    125                    126
                      A                      A                      A
 Frequencies --   3235.2603              3243.1608              3251.9447
 Red. masses --      1.0951                 1.0912                 1.0927
 Frc consts  --      6.7535                 6.7622                 6.8080
 IR Inten    --     31.5665                14.6246                 8.9332

 - Thermochemistry -
 -------------------
 Temperature   298.150 Kelvin.  Pressure   1.00000 Atm.
 Atom     1 has atomic number  6 and mass  12.00000

 Molecular mass:   285.18411 amu.
 Principal axes and moments of inertia in atomic units:
                           1         2         3
     Eigenvalues --  4194.59613********************
           X            0.99986  -0.01618   0.00500
           Y            0.01615   0.99986   0.00475
           Z           -0.00508  -0.00467   0.99998
 This molecule is an asymmetric top.
 Rotational symmetry number  1.
 Warning -- assumption of classical behavior for rotation
           may cause significant error
 Rotational temperatures (Kelvin)      0.02065     0.00730     0.00593
 Rotational constants (GHZ):           0.43025     0.15219     0.12347
 Zero-point vibrational energy     997306.7 (Joules/Mol)
                                  238.36201 (Kcal/Mol)
 Warning -- explicit consideration of  31 degrees of freedom as
           vibrations may cause significant error
 Vibrational temperatures:     21.44    39.04    44.97    48.59    56.74
          (Kelvin)             95.05   120.80   164.12   181.13   204.08
                              248.95   289.68   321.95   349.50   357.05
                              383.87   396.66   439.71   481.30   500.92
                              530.58   572.91   609.52   614.69   620.61
                              627.39   649.96   752.53   764.57   778.23
                              832.95   900.36   919.73   945.32  1023.46
                             1074.54  1083.60  1124.79  1129.95  1150.43
                             1197.30  1206.11  1221.22  1236.06  1256.73
                             1360.89  1388.53  1403.55  1409.23  1432.80
                             1439.95  1476.64  1486.11  1492.95  1529.39
                             1532.16  1539.99  1554.13  1607.43  1621.97
                             1625.07  1628.81  1694.12  1709.09  1715.28
                             1720.32  1729.83  1752.56  1768.97  1797.39
                             1844.45  1848.39  1860.82  1874.09  1905.42
                             1923.62  1932.29  1939.14  1971.07  1973.25
                             2011.42  2063.47  2071.67  2101.80  2104.20
                             2126.74  2134.27  2145.87  2163.42  2165.65
                             2171.51  2183.15  2183.86  2185.67  2187.45
                             2199.79  2206.62  2219.39  2246.27  2318.88
                             2353.81  2380.46  2400.98  4254.16  4255.83
                             4267.02  4392.03  4399.85  4431.58  4442.41
                             4445.37  4457.68  4459.28  4490.31  4508.38
                             4524.95  4552.14  4571.26  4587.29  4592.41
                             4617.21  4621.25  4641.44  4654.82  4666.19
                             4678.82

 Zero-point correction=                           0.379854 (Hartree/Particle)
 Thermal correction to Energy=                    0.400429
 Thermal correction to Enthalpy=                  0.401373
 Thermal correction to Gibbs Free Energy=         0.327331
 Sum of electronic and zero-point Energies=           -900.739026
 Sum of electronic and thermal Energies=              -900.718451
 Sum of electronic and thermal Enthalpies=            -900.717507
 Sum of electronic and thermal Free Energies=         -900.791549

                     E (Thermal)             CV                S
                      KCal/Mol        Cal/Mol-Kelvin    Cal/Mol-Kelvin
 Total                  251.273             77.873            155.835
 Electronic               0.000              0.000              0.000
 Translational            0.889              2.981             42.842
 Rotational               0.889              2.981             34.940
 Vibrational            249.496             71.911             78.053
 Vibration     1          0.593              1.986              7.219
 Vibration     2          0.593              1.984              6.028
 Vibration     3          0.594              1.983              5.748
 Vibration     4          0.594              1.983              5.594
 Vibration     5          0.594              1.981              5.287
 Vibration     6          0.597              1.970              4.267
 Vibration     7          0.601              1.960              3.796
 Vibration     8          0.607              1.938              3.198
 Vibration     9          0.611              1.927              3.008
 Vibration    10          0.615              1.911              2.779
 Vibration    11          0.627              1.876              2.402
 Vibration    12          0.638              1.838              2.121
 Vibration    13          0.649              1.805              1.928
 Vibration    14          0.659              1.774              1.781
 Vibration    15          0.662              1.766              1.744
 Vibration    16          0.672              1.734              1.617
 Vibration    17          0.677              1.718              1.560
 Vibration    18          0.696              1.663              1.386
 Vibration    19          0.716              1.607              1.238
 Vibration    20          0.726              1.579              1.175
 Vibration    21          0.741              1.536              1.085
 Vibration    22          0.764              1.474              0.969
 Vibration    23          0.786              1.419              0.880
 Vibration    24          0.789              1.411              0.868
 Vibration    25          0.792              1.402              0.854
 Vibration    26          0.797              1.392              0.839
 Vibration    27          0.810              1.357              0.791
 Vibration    28          0.878              1.199              0.603
 Vibration    29          0.886              1.181              0.584
 Vibration    30          0.896              1.160              0.563
 Vibration    31          0.936              1.077              0.487

 Optimization completed.
    -- Stationary point found.
 Normal termination of Gaussian 16 at Wed Mar  2 08:15:48 2022.

 ------------------------------------------
 #p b3lyp/6-31G(d) geom=allcheck guess=read
 ------------------------------------------

 Structure from the checkpoint file:  "79.n.pdb.xyz.mst.wat.chk"
 ------------
 79.n.pdb.xyz
 ------------
 Charge =  0 Multiplicity = 1

 SCF Done:  E(RB3LYP) =  -901.109337714     A.U. after   11 cycles
 Normal termination of Gaussian 16 at Wed Mar  2 08:19:25 2022.
 Gaussian 16:  ES64L-G16RevA.03 25-Dec-2016

 ----------------------------------------------------------------------
 #p b3lyp/6-31G(d) scrf=(iefpcm,read,solvent=water) geom=allcheck guess
 =read
 ----------------------------------------------------------------------

 Structure from the checkpoint file:  "79.n.pdb.xyz.mst.wat.chk"
 ------------
 79.n.pdb.xyz
 ------------
 Charge =  0 Multiplicity = 1

                         Standard orientation:
 ---------------------------------------------------------------------
 Center     Atomic      Atomic             Coordinates (Angstroms)
 Number     Number       Type             X           Y           Z
 ---------------------------------------------------------------------
      1          6           0       -6.481276   -0.804368    0.129382
      2          8           0       -5.358757   -0.752700    1.006699
      3          6           0       -4.116271   -0.706484    0.443547
      4          6           0       -3.873806   -0.695791   -0.934417
      5          6           0       -2.557310   -0.641625   -1.399989
      6          6           0       -1.471516   -0.603134   -0.523177
      7          6           0       -0.052471   -0.610882   -1.071237
      8          7           0        0.950753   -0.007608   -0.204656
      9          6           0        1.923381   -0.886000    0.439661
     10          6           0        3.131271   -1.200334   -0.455026
     11          7           0        4.061414   -2.132225    0.183780
     12          6           0        4.966279   -2.721836   -0.797873
     13          6           0        4.825341   -1.496238    1.254040
     14          6           0        1.071515    1.361862   -0.122808
     15          7           0        2.103766    1.850060    0.597096
     16          6           0        2.237365    3.180568    0.693780
     17          6           0        1.386743    4.101345    0.093867
     18          6           0        0.315324    3.590820   -0.649492
     19          6           0        0.142762    2.221585   -0.763163
     20          6           0       -1.732674   -0.610546    0.853240
     21          6           0       -3.035601   -0.660044    1.335933
     22          1           0       -7.361232   -0.834595    0.770461
     23          1           0       -6.524397    0.081899   -0.512096
     24          1           0       -6.453098   -1.701283   -0.498643
     25          1           0       -4.693988   -0.720562   -1.640748
     26          1           0       -2.379505   -0.627714   -2.471893
     27          1           0       -0.044240   -0.126910   -2.054661
     28          1           0        0.263896   -1.644449   -1.241187
     29          1           0        2.246655   -0.411475    1.365369
     30          1           0        1.418554   -1.820885    0.697773
     31          1           0        2.770838   -1.670495   -1.376420
     32          1           0        3.627438   -0.256887   -0.746200
     33          1           0        5.612165   -1.974262   -1.293423
     34          1           0        4.388356   -3.236653   -1.570635
     35          1           0        5.615256   -3.452262   -0.304948
     36          1           0        5.477205   -2.237889    1.724723
     37          1           0        4.154825   -1.100129    2.019849
     38          1           0        5.457473   -0.665839    0.889010
     39          1           0        3.083181    3.522311    1.286542
     40          1           0        1.551277    5.166446    0.204342
     41          1           0       -0.387739    4.260703   -1.134320
     42          1           0       -0.696084    1.815303   -1.311328
     43          1           0       -0.904567   -0.565922    1.552333
     44          1           0       -3.238069   -0.661832    2.401369
 ---------------------------------------------------------------------

 SCF Done:  E(RB3LYP) =  -901.117440347     A.U. after   11 cycles

 The electronic state is 1-A.
 Alpha  occ. eigenvalues --  -19.18001 -14.35531 -14.32630 -14.32060 -10.25760
 Alpha  occ. eigenvalues --  -10.24923 -10.23345 -10.22425 -10.21841 -10.21102
 Alpha  occ. eigenvalues --  -10.20244 -10.20046 -10.19759 -10.19701 -10.19286
 Alpha  occ. eigenvalues --  -10.19225 -10.19088 -10.18951 -10.18780 -10.18680
 Alpha  occ. eigenvalues --  -10.18142  -1.06431  -0.97222  -0.91964  -0.90893
 Alpha  occ. eigenvalues --   -0.85440  -0.79647  -0.77390  -0.76328  -0.75012
 Alpha  occ. eigenvalues --   -0.73184  -0.70639  -0.70067  -0.67199  -0.65318
 Alpha  occ. eigenvalues --   -0.62193  -0.61423  -0.59556  -0.58063  -0.57127
 Alpha  occ. eigenvalues --   -0.53605  -0.52574  -0.49992  -0.48675  -0.48374
 Alpha  occ. eigenvalues --   -0.47234  -0.46700  -0.46535  -0.46480  -0.45107
 Alpha  occ. eigenvalues --   -0.44921  -0.44218  -0.43209  -0.42340  -0.41815
 Alpha  occ. eigenvalues --   -0.41327  -0.40639  -0.39483  -0.39172  -0.38696
 Alpha  occ. eigenvalues --   -0.37541  -0.37203  -0.36859  -0.36723  -0.36275
 Alpha  occ. eigenvalues --   -0.35817  -0.35495  -0.33826  -0.32669  -0.31641
 Alpha  occ. eigenvalues --   -0.29414  -0.27770  -0.25709  -0.25485  -0.21929
 Alpha  occ. eigenvalues --   -0.21844  -0.19998
 Alpha virt. eigenvalues --   -0.01771  -0.00570   0.00831   0.01127   0.08659
 Alpha virt. eigenvalues --    0.09586   0.10644   0.11117   0.11437   0.12582
 Alpha virt. eigenvalues --    0.12802   0.13863   0.14171   0.14782   0.15502

 Mulliken charges:
               1
     1  C   -0.227508
     2  O   -0.529511
     3  C    0.371636
     4  C   -0.214144
     5  C   -0.209925
     6  C    0.146450
     7  C   -0.241591
     8  N   -0.465381
     9  C   -0.152573
    10  C   -0.119756
    11  N   -0.406516
    12  C   -0.303323
    13  C   -0.311220
    14  C    0.511957
    15  N   -0.546461
    16  C    0.020756
    17  C   -0.179807
    18  C   -0.126216
    19  C   -0.197188
    20  C   -0.192877
    21  C   -0.197889
    22  H    0.180075
    23  H    0.167193
    24  H    0.167015
    25  H    0.160203
    26  H    0.147826
    27  H    0.170145
    28  H    0.186785
    29  H    0.172829
    30  H    0.156737
    31  H    0.147074
    32  H    0.127660
    33  H    0.125776
    34  H    0.156821
    35  H    0.154758
    36  H    0.156236
    37  H    0.161979
    38  H    0.126323
    39  H    0.147555
    40  H    0.146732
    41  H    0.158623
    42  H    0.153774
    43  H    0.150861
    44  H    0.148107
 Sum of Mulliken charges =  -0.00000

 Dipole moment (field-independent basis, Debye):
    X=             -2.3218    Y=             -0.4779    Z=             -3.1612  Tot=              3.9512
 Quadrupole moment (field-independent basis, Debye-Ang):
   XX=           -104.4578   YY=           -122.1588   ZZ=           -121.0858
   XY=             -1.2429   XZ=              8.1988   YZ=              1.8558

 Normal termination of Gaussian 16 at Wed Mar  2 08:24:36 2022.
