 Gaussian 16, Revision A.03,

 ----------------------------------------------------------------------
 #p b3lyp/6-31G(d) opt=(MaxStep=10,MaxCycles=1000) freq scf=(MaxCycle=2
 000,NoVarAcc,NoIncFock) scrf=(iefpcm,read,solvent=water)
 ----------------------------------------------------------------------

 ------------
 80.n.pdb.xyz
 ------------
 Symbolic Z-matrix:
 Charge =  0 Multiplicity = 1

 SCF Done:  E(RB3LYP) =  -1457.83363413     A.U. after   13 cycles
 SCF Done:  E(RB3LYP) =  -1457.83970988     A.U. after   11 cycles
 SCF Done:  E(RB3LYP) =  -1457.84173600     A.U. after   12 cycles
 SCF Done:  E(RB3LYP) =  -1457.84360981     A.U. after   11 cycles
 SCF Done:  E(RB3LYP) =  -1457.84457974     A.U. after   11 cycles
 SCF Done:  E(RB3LYP) =  -1457.84512595     A.U. after   11 cycles
 SCF Done:  E(RB3LYP) =  -1457.84511626     A.U. after   11 cycles
 SCF Done:  E(RB3LYP) =  -1457.84548411     A.U. after   10 cycles
 SCF Done:  E(RB3LYP) =  -1457.84559838     A.U. after   10 cycles
 SCF Done:  E(RB3LYP) =  -1457.84567607     A.U. after   10 cycles
 SCF Done:  E(RB3LYP) =  -1457.84581806     A.U. after    7 cycles
 SCF Done:  E(RB3LYP) =  -1457.84581743     A.U. after    7 cycles
 SCF Done:  E(RB3LYP) =  -1457.84581824     A.U. after    7 cycles
 SCF Done:  E(RB3LYP) =  -1457.84581766     A.U. after    7 cycles
 SCF Done:  E(RB3LYP) =  -1457.84581805     A.U. after    7 cycles
 SCF Done:  E(RB3LYP) =  -1457.84581823     A.U. after    6 cycles
 SCF Done:  E(RB3LYP) =  -1457.84581824     A.U. after    6 cycles
 Optimization completed.
    -- Stationary point found.
 Normal termination of Gaussian 16 at Tue Mar  1 07:55:13 2022.

 --------------------------------------------------------------------
 #P Geom=AllCheck Guess=TCheck SCRF=Check GenChk RB3LYP/6-31G(d) Freq
 --------------------------------------------------------------------

 Structure from the checkpoint file:  "80.n.pdb.xyz.mst.wat.chk"
 ------------
 80.n.pdb.xyz
 ------------
 Charge =  0 Multiplicity = 1

 SCF Done:  E(RB3LYP) =  -1457.84581824     A.U. after    1 cycles

  Exact polarizability: 390.890  -8.260 390.403   3.407  35.100 248.856
 Approx polarizability: 422.436  -3.236 436.595   4.041  44.584 293.280

                      1                      2                      3
                      A                      A                      A
 Frequencies --      7.7503                17.0476                31.4571
 Red. masses --      7.9837                 3.6587                 3.7597
 Frc consts  --      0.0003                 0.0006                 0.0022
 IR Inten    --      0.4070                 1.5796                 0.3147

                      4                      5                      6
                      A                      A                      A
 Frequencies --     48.1043                50.2971                64.7427
 Red. masses --      4.1646                 4.4782                 4.9969
 Frc consts  --      0.0057                 0.0067                 0.0123
 IR Inten    --      0.4411                 5.5831                 0.4063

                      7                      8                      9
                      A                      A                      A
 Frequencies --     71.9729                85.5693               117.9797
 Red. masses --      3.7143                 2.6766                 3.8438
 Frc consts  --      0.0113                 0.0115                 0.0315
 IR Inten    --      3.0828                 2.7312                 1.1224

                     10                     11                     12
                      A                      A                      A
 Frequencies --    143.9572               149.8719               168.0939
 Red. masses --      3.8457                 2.9056                 5.2946
 Frc consts  --      0.0470                 0.0385                 0.0881
 IR Inten    --      1.4554                 3.1016                 1.5461

                     13                     14                     15
                      A                      A                      A
 Frequencies --    181.6190               188.6910               207.8784
 Red. masses --      3.7637                 1.6067                 1.8263
 Frc consts  --      0.0731                 0.0337                 0.0465
 IR Inten    --      0.4907                 1.2499                 1.8322

                     16                     17                     18
                      A                      A                      A
 Frequencies --    230.7017               236.9749               249.6248
 Red. masses --      1.5517                 3.0318                 2.5394
 Frc consts  --      0.0487                 0.1003                 0.0932
 IR Inten    --      0.1755                 0.7288                 3.1245

                     19                     20                     21
                      A                      A                      A
 Frequencies --    270.2461               286.7284               296.7032
 Red. masses --      4.2884                 1.7574                 3.3877
 Frc consts  --      0.1845                 0.0851                 0.1757
 IR Inten    --      0.7316                 3.7558                 1.9958

                     22                     23                     24
                      A                      A                      A
 Frequencies --    300.0521               349.8064               368.9347
 Red. masses --      4.0824                 2.8441                 5.3421
 Frc consts  --      0.2166                 0.2050                 0.4284
 IR Inten    --      6.7052                 0.9845                 4.6178

                     25                     26                     27
                      A                      A                      A
 Frequencies --    382.8971               415.1931               434.2592
 Red. masses --      5.5599                 4.3397                 4.5181
 Frc consts  --      0.4803                 0.4408                 0.5020
 IR Inten    --      3.4603                 5.2274                10.3640

                     28                     29                     30
                      A                      A                      A
 Frequencies --    435.5762               462.6248               466.0162
 Red. masses --      4.2062                 3.4406                 3.5130
 Frc consts  --      0.4702                 0.4339                 0.4495
 IR Inten    --     15.2247                 4.3263                 7.3010

                     31                     32                     33
                      A                      A                      A
 Frequencies --    485.7610               509.3448               513.8552
 Red. masses --      4.0677                 5.4902                 4.1510
 Frc consts  --      0.5655                 0.8392                 0.6458
 IR Inten    --     11.5200                 4.3474                 3.4713

                     34                     35                     36
                      A                      A                      A
 Frequencies --    560.4921               585.3058               597.9315
 Red. masses --      4.1819                 4.7324                 5.4218
 Frc consts  --      0.7740                 0.9552                 1.1421
 IR Inten    --     14.0343                 5.6527                17.6825

                     37                     38                     39
                      A                      A                      A
 Frequencies --    640.6022               661.5158               683.6716
 Red. masses --      6.9828                 4.4275                 6.4451
 Frc consts  --      1.6883                 1.1415                 1.7749
 IR Inten    --     18.4291                 1.8850                36.2064

                     40                     41                     42
                      A                      A                      A
 Frequencies --    698.6078               716.3056               733.2424
 Red. masses --      4.9516                 6.5625                 4.8924
 Frc consts  --      1.4238                 1.9839                 1.5498
 IR Inten    --     16.4889                 6.1442                 6.2952

                     43                     44                     45
                      A                      A                      A
 Frequencies --    760.1855               768.7586               778.9392
 Red. masses --      1.7557                 2.5640                 1.7424
 Frc consts  --      0.5978                 0.8928                 0.6229
 IR Inten    --     40.1066                28.0451                47.3280

                     46                     47                     48
                      A                      A                      A
 Frequencies --    780.7353               790.4427               812.1503
 Red. masses --      1.9350                 2.3936                 1.8680
 Frc consts  --      0.6949                 0.8811                 0.7259
 IR Inten    --     10.6747                28.8460                16.9132

                     49                     50                     51
                      A                      A                      A
 Frequencies --    823.5322               868.7070               876.1635
 Red. masses --      3.2188                 4.2545                 3.4483
 Frc consts  --      1.2862                 1.8917                 1.5597
 IR Inten    --      9.4466                 3.5791                 9.4271

                     52                     53                     54
                      A                      A                      A
 Frequencies --    884.7012               891.9670               930.0972
 Red. masses --      1.3873                 1.4712                 1.6936
 Frc consts  --      0.6398                 0.6896                 0.8632
 IR Inten    --      0.4201                 3.3436                18.4949

                     55                     56                     57
                      A                      A                      A
 Frequencies --    942.0702               962.0799               976.0428
 Red. masses --      2.2251                 1.3729                 1.4977
 Frc consts  --      1.1635                 0.7487                 0.8406
 IR Inten    --      4.4522                 5.6550                16.1607

                     58                     59                     60
                      A                      A                      A
 Frequencies --    983.6677               990.1905               998.3001
 Red. masses --      1.3442                 1.6113                 1.2859
 Frc consts  --      0.7663                 0.9308                 0.7551
 IR Inten    --      2.5102                 9.9480                 0.1092

                     61                     62                     63
                      A                      A                      A
 Frequencies --   1008.6424              1016.3726              1042.1203
 Red. masses --      3.8411                 1.2988                 2.3931
 Frc consts  --      2.3024                 0.7905                 1.5313
 IR Inten    --     42.9490                 0.0583                10.0804

                     64                     65                     66
                      A                      A                      A
 Frequencies --   1050.6172              1052.2763              1074.7932
 Red. masses --      2.5736                 4.8270                 2.2954
 Frc consts  --      1.6737                 3.1491                 1.5623
 IR Inten    --     10.2214                67.0751                 7.8508

                     67                     68                     69
                      A                      A                      A
 Frequencies --   1088.1751              1115.3312              1151.6310
 Red. masses --      1.9100                 1.8688                 1.7229
 Frc consts  --      1.3326                 1.3697                 1.3463
 IR Inten    --     23.6440               133.5706                 9.2896

                     70                     71                     72
                      A                      A                      A
 Frequencies --   1155.1139              1156.9469              1164.6937
 Red. masses --      1.4507                 1.6135                 1.8353
 Frc consts  --      1.1405                 1.2725                 1.4669
 IR Inten    --      7.2594                71.6467                19.9675

                     73                     74                     75
                      A                      A                      A
 Frequencies --   1170.3450              1185.5111              1192.2816
 Red. masses --      1.8323                 1.2767                 1.0843
 Frc consts  --      1.4787                 1.0572                 0.9082
 IR Inten    --     44.6921                27.0853                 0.3868

                     76                     77                     78
                      A                      A                      A
 Frequencies --   1208.0832              1213.9343              1246.6403
 Red. masses --      1.6870                 1.8552                 3.4141
 Frc consts  --      1.4506                 1.6107                 3.1262
 IR Inten    --      1.6431                23.5909                27.4990

                     79                     80                     81
                      A                      A                      A
 Frequencies --   1256.9967              1290.0786              1295.0161
 Red. masses --      2.3284                 1.5467                 1.3533
 Frc consts  --      2.1676                 1.5167                 1.3372
 IR Inten    --      1.0375                 2.0684                20.9473

                     82                     83                     84
                      A                      A                      A
 Frequencies --   1310.9091              1334.1259              1342.3297
 Red. masses --      1.8632                 7.8354                 1.6029
 Frc consts  --      1.8865                 8.2168                 1.7017
 IR Inten    --      5.0748                 1.7501                86.4436

                     85                     86                     87
                      A                      A                      A
 Frequencies --   1366.2670              1381.6534              1390.5487
 Red. masses --      2.9138                 1.4839                 1.9084
 Frc consts  --      3.2047                 1.6690                 2.1741
 IR Inten    --     28.9147                10.3015                80.0791

                     88                     89                     90
                      A                      A                      A
 Frequencies --   1408.7734              1420.7899              1429.8600
 Red. masses --      3.0730                 3.4518                 1.3574
 Frc consts  --      3.5933                 4.1054                 1.6351
 IR Inten    --     16.1769                20.1759                 3.8702

                     91                     92                     93
                      A                      A                      A
 Frequencies --   1436.0392              1439.7510              1456.1912
 Red. masses --      4.3545                 1.2481                 2.2237
 Frc consts  --      5.2908                 1.5243                 2.7782
 IR Inten    --     43.2483                 8.1803               292.3792

                     94                     95                     96
                      A                      A                      A
 Frequencies --   1476.2479              1484.3560              1501.8015
 Red. masses --      2.1880                 1.8807                 1.4494
 Frc consts  --      2.8094                 2.4415                 1.9261
 IR Inten    --     46.3066                20.3555                45.7269

                     97                     98                     99
                      A                      A                      A
 Frequencies --   1505.5412              1505.9790              1514.6737
 Red. masses --      1.0542                 1.1064                 1.0484
 Frc consts  --      1.4079                 1.4785                 1.4172
 IR Inten    --     26.0090                22.6556                12.9406

                    100                    101                    102
                      A                      A                      A
 Frequencies --   1520.6836              1521.6999              1528.7644
 Red. masses --      1.2167                 2.0259                 1.0648
 Frc consts  --      1.6577                 2.7639                 1.4663
 IR Inten    --     17.0774                13.6426                13.3775

                    103                    104                    105
                      A                      A                      A
 Frequencies --   1534.3492              1544.7880              1547.5972
 Red. masses --      1.0646                 1.4391                 2.2039
 Frc consts  --      1.4767                 2.0234                 3.1099
 IR Inten    --      3.2972                45.9694               125.1527

                    106                    107                    108
                      A                      A                      A
 Frequencies --   1612.0601              1623.5727              1633.4442
 Red. masses --      8.0408                 5.6566                 6.4890
 Frc consts  --     12.3115                 8.7852                10.2009
 IR Inten    --     42.9245                 8.3136                34.9206

                    109                    110                    111
                      A                      A                      A
 Frequencies --   1653.1419              1672.8909              1679.0397
 Red. masses --      6.3705                 7.2125                 7.9780
 Frc consts  --     10.2575                11.8924                13.2516
 IR Inten    --     10.4280               304.3252               262.5814

                    112                    113                    114
                      A                      A                      A
 Frequencies --   3052.9285              3064.5826              3068.3460
 Red. masses --      1.0593                 1.0360                 1.0374
 Frc consts  --      5.8169                 5.7324                 5.7545
 IR Inten    --     39.9948                37.3610                30.0500

                    115                    116                    117
                      A                      A                      A
 Frequencies --   3082.1611              3088.7230              3120.3162
 Red. masses --      1.0432                 1.0955                 1.0896
 Frc consts  --      5.8390                 6.1579                 6.2502
 IR Inten    --     52.5094                43.2757                11.7197

                    118                    119                    120
                      A                      A                      A
 Frequencies --   3130.0203              3136.4653              3138.2198
 Red. masses --      1.1021                 1.1013                 1.1018
 Frc consts  --      6.3614                 6.3830                 6.3935
 IR Inten    --     53.8228                67.7263                83.6709

                    121                    122                    123
                      A                      A                      A
 Frequencies --   3141.1187              3148.2730              3206.9978
 Red. masses --      1.1010                 1.1020                 1.0989
 Frc consts  --      6.4004                 6.4354                 6.6587
 IR Inten    --     40.9647                47.0666                22.8751

                    124                    125                    126
                      A                      A                      A
 Frequencies --   3209.4090              3215.7371              3218.1460
 Red. masses --      1.0866                 1.0863                 1.0894
 Frc consts  --      6.5940                 6.6185                 6.6471
 IR Inten    --      1.1489                 0.1973                14.5495

                    127                    128                    129
                      A                      A                      A
 Frequencies --   3223.9606              3227.4481              3234.5864
 Red. masses --      1.0902                 1.0941                 1.0945
 Frc consts  --      6.6760                 6.7149                 6.7470
 IR Inten    --     13.7528                43.4853                27.9234

                    130                    131                    132
                      A                      A                      A
 Frequencies --   3235.2987              3237.0636              3243.3948
 Red. masses --      1.0916                 1.0960                 1.0962
 Frc consts  --      6.7317                 6.7666                 6.7943
 IR Inten    --     10.8234                29.1812                14.4931

 - Thermochemistry -
 -------------------
 Temperature   298.150 Kelvin.  Pressure   1.00000 Atm.
 Atom     1 has atomic number  6 and mass  12.00000

 Molecular mass:   352.13424 amu.
 Principal axes and moments of inertia in atomic units:
                           1         2         3
     Eigenvalues --  6535.57404********************
           X            0.99981  -0.01912   0.00434
           Y            0.01910   0.99980   0.00660
           Z           -0.00447  -0.00651   0.99997
 This molecule is an asymmetric top.
 Rotational symmetry number  1.
 Warning -- assumption of classical behavior for rotation
           may cause significant error
 Rotational temperatures (Kelvin)      0.01325     0.00635     0.00495
 Rotational constants (GHZ):           0.27614     0.13234     0.10320
 Zero-point vibrational energy     988494.7 (Joules/Mol)
                                  236.25590 (Kcal/Mol)
 Warning -- explicit consideration of  36 degrees of freedom as
           vibrations may cause significant error
 Vibrational temperatures:     11.15    24.53    45.26    69.21    72.37
          (Kelvin)             93.15   103.55   123.12   169.75   207.12
                              215.63   241.85   261.31   271.48   299.09
                              331.93   340.95   359.15   388.82   412.54
                              426.89   431.71   503.29   530.81   550.90
                              597.37   624.80   626.70   665.61   670.49
                              698.90   732.83   739.32   806.42   842.12
                              860.29   921.68   951.77   983.65  1005.14
                             1030.60  1054.97  1093.74  1106.07  1120.72
                             1123.30  1137.27  1168.50  1184.88  1249.88
                             1260.60  1272.89  1283.34  1338.20  1355.43
                             1384.22  1404.31  1415.28  1424.66  1436.33
                             1451.21  1462.33  1499.38  1511.60  1513.99
                             1546.39  1565.64  1604.71  1656.94  1661.95
                             1664.59  1675.73  1683.87  1705.69  1715.43
                             1738.16  1746.58  1793.64  1808.54  1856.14
                             1863.24  1886.11  1919.51  1931.31  1965.75
                             1987.89  2000.69  2026.91  2044.20  2057.25
                             2066.14  2071.48  2095.13  2123.99  2135.66
                             2160.76  2166.14  2166.77  2179.28  2187.92
                             2189.39  2199.55  2207.59  2222.61  2226.65
                             2319.39  2335.96  2350.16  2378.50  2406.92
                             2415.76  4392.48  4409.25  4414.67  4434.54
                             4443.98  4489.44  4503.40  4512.67  4515.20
                             4519.37  4529.66  4614.15  4617.62  4626.73
                             4630.19  4638.56  4643.58  4653.85  4654.87
                             4657.41  4666.52

 Zero-point correction=                           0.376498 (Hartree/Particle)
 Thermal correction to Energy=                    0.399628
 Thermal correction to Enthalpy=                  0.400572
 Thermal correction to Gibbs Free Energy=         0.320577
 Sum of electronic and zero-point Energies=          -1457.469321
 Sum of electronic and thermal Energies=             -1457.446191
 Sum of electronic and thermal Enthalpies=           -1457.445247
 Sum of electronic and thermal Free Energies=        -1457.525241

                     E (Thermal)             CV                S
                      KCal/Mol        Cal/Mol-Kelvin    Cal/Mol-Kelvin
 Total                  250.770             87.973            168.362
 Electronic               0.000              0.000              0.000
 Translational            0.889              2.981             43.470
 Rotational               0.889              2.981             35.698
 Vibrational            248.993             82.012             89.194
 Vibration     1          0.593              1.987              8.517
 Vibration     2          0.593              1.986              6.951
 Vibration     3          0.594              1.983              5.735
 Vibration     4          0.595              1.978              4.894
 Vibration     5          0.595              1.977              4.806
 Vibration     6          0.597              1.971              4.307
 Vibration     7          0.598              1.967              4.099
 Vibration     8          0.601              1.959              3.759
 Vibration     9          0.608              1.934              3.133
 Vibration    10          0.616              1.909              2.751
 Vibration    11          0.618              1.903              2.674
 Vibration    12          0.625              1.882              2.457
 Vibration    13          0.630              1.865              2.312
 Vibration    14          0.633              1.855              2.241
 Vibration    15          0.641              1.829              2.062
 Vibration    16          0.652              1.794              1.873
 Vibration    17          0.656              1.784              1.825
 Vibration    18          0.662              1.763              1.733
 Vibration    19          0.674              1.728              1.595
 Vibration    20          0.684              1.698              1.493
 Vibration    21          0.690              1.680              1.435
 Vibration    22          0.693              1.674              1.417
 Vibration    23          0.727              1.576              1.167
 Vibration    24          0.741              1.536              1.084
 Vibration    25          0.752              1.507              1.028
 Vibration    26          0.779              1.437              0.908
 Vibration    27          0.795              1.396              0.845
 Vibration    28          0.796              1.393              0.841
 Vibration    29          0.820              1.333              0.759
 Vibration    30          0.823              1.325              0.749
 Vibration    31          0.842              1.282              0.695
 Vibration    32          0.864              1.229              0.635
 Vibration    33          0.869              1.219              0.624
 Vibration    34          0.916              1.117              0.523
 Vibration    35          0.942              1.063              0.476
 Vibration    36          0.956              1.036              0.453

                           ! Non-Optimized Parameters !
 Normal termination of Gaussian 16 at Tue Mar  1 09:15:08 2022.

 ------------------------------------------
 #p b3lyp/6-31G(d) geom=allcheck guess=read
 ------------------------------------------

 Structure from the checkpoint file:  "80.n.pdb.xyz.mst.wat.chk"
 ------------
 80.n.pdb.xyz
 ------------
 Charge =  0 Multiplicity = 1

 SCF Done:  E(RB3LYP) =  -1457.83412796     A.U. after   12 cycles
 Normal termination of Gaussian 16 at Tue Mar  1 09:19:54 2022.
 Gaussian 16:  ES64L-G16RevA.03 25-Dec-2016

 ----------------------------------------------------------------------
 #p b3lyp/6-31G(d) scrf=(iefpcm,read,solvent=water) geom=allcheck guess
 =read
 ----------------------------------------------------------------------

 Structure from the checkpoint file:  "80.n.pdb.xyz.mst.wat.chk"
 ------------
 80.n.pdb.xyz
 ------------
 Charge =  0 Multiplicity = 1

                         Standard orientation:
 ---------------------------------------------------------------------
 Center     Atomic      Atomic             Coordinates (Angstroms)
 Number     Number       Type             X           Y           Z
 ---------------------------------------------------------------------
      1          6           0        6.203729   -1.722413    0.878304
      2          6           0        4.838943   -1.502351    0.221073
      3          6           0        4.457017   -0.016596    0.121345
      4          6           0        5.367089    0.784570   -0.815872
      5          7           0        3.037967    0.130157   -0.271015
      6          6           0        2.597804   -0.590606   -1.463609
      7          6           0        2.289798    1.063694    0.372909
      8          8           0        2.771097    1.848354    1.206818
      9          6           0        0.809384    1.141500    0.092007
     10          6           0        0.209981    2.380575    0.090213
     11          6           0       -1.185249    2.480346   -0.117878
     12          6           0       -1.869140    3.723011   -0.176280
     13          6           0       -3.228398    3.756824   -0.390969
     14          6           0       -3.959907    2.555139   -0.558967
     15          6           0       -3.323284    1.335363   -0.503389
     16          6           0       -1.924830    1.268014   -0.276976
     17          6           0       -1.199480    0.036383   -0.206916
     18          7           0        0.111172   -0.022463   -0.051317
     19          6           0       -1.900950   -1.278117   -0.355321
     20          6           0       -2.632850   -1.871679    0.680393
     21         17           0       -2.760124   -1.065814    2.244418
     22          6           0       -3.256656   -3.108405    0.528291
     23          6           0       -3.150835   -3.779586   -0.688444
     24          6           0       -2.421493   -3.217052   -1.735601
     25          6           0       -1.802633   -1.980560   -1.565154
     26          1           0        7.009636   -1.261495    0.300356
     27          1           0        6.229657   -1.295441    1.886120
     28          1           0        6.424087   -2.790760    0.961794
     29          1           0        4.067800   -2.017787    0.805277
     30          1           0        4.836370   -1.957677   -0.776114
     31          1           0        4.519797    0.423229    1.117742
     32          1           0        6.411189    0.693504   -0.505343
     33          1           0        5.293127    0.426474   -1.847941
     34          1           0        5.096310    1.843514   -0.797480
     35          1           0        1.729556   -0.104122   -1.899666
     36          1           0        2.341853   -1.630234   -1.243838
     37          1           0        3.405946   -0.577648   -2.199081
     38          1           0        0.809200    3.270058    0.243450
     39          1           0       -1.303138    4.640232   -0.052112
     40          1           0       -3.747233    4.708308   -0.436335
     41          1           0       -5.029212    2.600326   -0.733992
     42          1           0       -3.881275    0.416183   -0.636840
     43          1           0       -3.810010   -3.536785    1.355111
     44          1           0       -3.635461   -4.741600   -0.811057
     45          1           0       -2.333412   -3.738712   -2.681900
     46          1           0       -1.233654   -1.539746   -2.376423
 ---------------------------------------------------------------------

 SCF Done:  E(RB3LYP) =  -1457.84420839     A.U. after   11 cycles

 The electronic state is 1-A.
 Alpha  occ. eigenvalues -- -101.55563 -19.11453 -14.36426 -14.34246 -10.28825
 Alpha  occ. eigenvalues --  -10.26045 -10.24759 -10.23352 -10.21839 -10.21777
 Alpha  occ. eigenvalues --  -10.21669 -10.21393 -10.21092 -10.20683 -10.20523
 Alpha  occ. eigenvalues --  -10.20474 -10.20384 -10.20352 -10.20310 -10.20211
 Alpha  occ. eigenvalues --  -10.20184 -10.20020 -10.18123 -10.17333 -10.17299
 Alpha  occ. eigenvalues --   -9.47181  -7.23566  -7.22620  -7.22581  -1.03199
 Alpha  occ. eigenvalues --   -0.95734  -0.93154  -0.89713  -0.86768  -0.84148
 Alpha  occ. eigenvalues --   -0.80959  -0.79259  -0.78159  -0.76039  -0.74572
 Alpha  occ. eigenvalues --   -0.73684  -0.72392  -0.70412  -0.66638  -0.65633
 Alpha  occ. eigenvalues --   -0.63897  -0.62729  -0.61340  -0.59443  -0.58324
 Alpha  occ. eigenvalues --   -0.54754  -0.53809  -0.52729  -0.51727  -0.49898
 Alpha  occ. eigenvalues --   -0.48059  -0.47857  -0.47629  -0.46984  -0.46394
 Alpha  occ. eigenvalues --   -0.45328  -0.44791  -0.43593  -0.43412  -0.43338
 Alpha  occ. eigenvalues --   -0.42781  -0.41773  -0.41665  -0.40339  -0.39703
 Alpha  occ. eigenvalues --   -0.39670  -0.39064  -0.38375  -0.37872  -0.37284
 Alpha  occ. eigenvalues --   -0.37095  -0.36642  -0.35989  -0.35396  -0.35026
 Alpha  occ. eigenvalues --   -0.34525  -0.33908  -0.33065  -0.32619  -0.32110
 Alpha  occ. eigenvalues --   -0.30067  -0.27754  -0.26977  -0.26356  -0.25605
 Alpha  occ. eigenvalues --   -0.25219  -0.23830  -0.23090
 Alpha virt. eigenvalues --   -0.06215  -0.04307  -0.01900  -0.01556   0.01503
 Alpha virt. eigenvalues --    0.02463   0.03554   0.08847   0.09201   0.10322
 Alpha virt. eigenvalues --    0.10956   0.11687   0.12363   0.12772   0.13864

 Mulliken charges:
               1
     1  C   -0.459340
     2  C   -0.262284
     3  C    0.028727
     4  C   -0.460904
     5  N   -0.417254
     6  C   -0.315388
     7  C    0.562150
     8  O   -0.598100
     9  C    0.199747
    10  C   -0.224348
    11  C    0.145931
    12  C   -0.192553
    13  C   -0.141627
    14  C   -0.142507
    15  C   -0.202022
    16  C    0.117385
    17  C    0.137146
    18  N   -0.537590
    19  C    0.076986
    20  C   -0.104443
    21  Cl  -0.029787
    22  C   -0.146628
    23  C   -0.131486
    24  C   -0.145266
    25  C   -0.154091
    26  H    0.154734
    27  H    0.150833
    28  H    0.151885
    29  H    0.147504
    30  H    0.144299
    31  H    0.160833
    32  H    0.160615
    33  H    0.152913
    34  H    0.157234
    35  H    0.183000
    36  H    0.171420
    37  H    0.169899
    38  H    0.166102
    39  H    0.164560
    40  H    0.163921
    41  H    0.162665
    42  H    0.164586
    43  H    0.175607
    44  H    0.166240
    45  H    0.163448
    46  H    0.165251
 Sum of Mulliken charges =  -0.00000

 Dipole moment (field-independent basis, Debye):
    X=             -2.8420    Y=             -1.9782    Z=             -5.8406  Tot=              6.7899
 Quadrupole moment (field-independent basis, Debye-Ang):
   XX=           -133.1829   YY=           -133.2672   ZZ=           -153.5432
   XY=             -8.5992   XZ=             -3.3273   YZ=             -0.6416

 Normal termination of Gaussian 16 at Tue Mar  1 09:25:25 2022.
