 Gaussian 16, Revision A.03,

 ----------------------------------------------------------------------
 #p b3lyp/6-31G(d) opt=(MaxStep=10,MaxCycles=1000) freq scf=(MaxCycle=2
 000,NoVarAcc,NoIncFock) scrf=(iefpcm,read,solvent=water)
 ----------------------------------------------------------------------

 ------------
 82.n.pdb.xyz
 ------------
 Symbolic Z-matrix:
 Charge =  0 Multiplicity = 1

 SCF Done:  E(RB3LYP) =  -386.338916279     A.U. after   12 cycles
 SCF Done:  E(RB3LYP) =  -386.340529512     A.U. after   10 cycles
 SCF Done:  E(RB3LYP) =  -386.340628634     A.U. after    9 cycles
 SCF Done:  E(RB3LYP) =  -386.340556441     A.U. after    9 cycles
 SCF Done:  E(RB3LYP) =  -386.340606404     A.U. after    9 cycles
 SCF Done:  E(RB3LYP) =  -386.340636755     A.U. after    9 cycles
 SCF Done:  E(RB3LYP) =  -386.340648837     A.U. after    8 cycles
 SCF Done:  E(RB3LYP) =  -386.340648188     A.U. after    8 cycles
 SCF Done:  E(RB3LYP) =  -386.340649318     A.U. after    8 cycles
 SCF Done:  E(RB3LYP) =  -386.340646954     A.U. after    8 cycles
 SCF Done:  E(RB3LYP) =  -386.340645899     A.U. after    7 cycles
 SCF Done:  E(RB3LYP) =  -386.340645605     A.U. after    7 cycles
 Optimization completed.
    -- Stationary point found.
 Normal termination of Gaussian 16 at Tue Mar  1 15:39:40 2022.

 --------------------------------------------------------------------
 #P Geom=AllCheck Guess=TCheck SCRF=Check GenChk RB3LYP/6-31G(d) Freq
 --------------------------------------------------------------------

 Structure from the checkpoint file:  "82.n.pdb.xyz.mst.wat.chk"
 ------------
 82.n.pdb.xyz
 ------------
 Charge =  0 Multiplicity = 1

 SCF Done:  E(RB3LYP) =  -386.340645605     A.U. after    1 cycles

  Exact polarizability:  98.477  -0.420  88.242  -1.549  -3.926  76.830
 Approx polarizability:  95.124   3.472  97.648  -2.827  -7.865  83.986

                      1                      2                      3
                      A                      A                      A
 Frequencies --     36.8684                62.1118                80.2165
 Red. masses --      4.3770                 1.5818                 1.4990
 Frc consts  --      0.0035                 0.0036                 0.0057
 IR Inten    --      2.1741                 2.3489                 0.0192

                      4                      5                      6
                      A                      A                      A
 Frequencies --    128.0623               190.1001               214.2664
 Red. masses --      3.0543                 2.3482                 1.1572
 Frc consts  --      0.0295                 0.0500                 0.0313
 IR Inten    --      2.8991                 5.6885                 1.3161

                      7                      8                      9
                      A                      A                      A
 Frequencies --    239.0026               266.9771               304.2760
 Red. masses --      1.1611                 3.0073                 2.5525
 Frc consts  --      0.0391                 0.1263                 0.1392
 IR Inten    --      2.1919                 8.7342                 1.9878

                     10                     11                     12
                      A                      A                      A
 Frequencies --    394.6115               429.3467               491.5437
 Red. masses --      2.4495                 2.0513                 3.1578
 Frc consts  --      0.2247                 0.2228                 0.4495
 IR Inten    --      3.7377                 4.8891                 1.4389

                     13                     14                     15
                      A                      A                      A
 Frequencies --    607.8865               640.1913               832.3661
 Red. masses --      2.7063                 4.6777                 2.7329
 Frc consts  --      0.5892                 1.1295                 1.1156
 IR Inten    --     10.7419                11.1199                 0.5024

                     16                     17                     18
                      A                      A                      A
 Frequencies --    920.0324               930.9784               941.0638
 Red. masses --      1.3403                 2.6797                 1.4079
 Frc consts  --      0.6684                 1.3684                 0.7346
 IR Inten    --     10.6232                16.8189                10.6728

                     19                     20                     21
                      A                      A                      A
 Frequencies --    966.6282               982.5557              1003.1487
 Red. masses --      1.7681                 1.6522                 2.1490
 Frc consts  --      0.9734                 0.9398                 1.2742
 IR Inten    --      2.1388                 4.6605                14.8162

                     22                     23                     24
                      A                      A                      A
 Frequencies --   1066.7357              1075.1216              1161.4150
 Red. masses --      2.7707                 1.7669                 2.1460
 Frc consts  --      1.8576                 1.2033                 1.7055
 IR Inten    --    179.1375                15.7077                 1.0795

                     25                     26                     27
                      A                      A                      A
 Frequencies --   1193.8229              1211.3089              1273.5788
 Red. masses --      1.7980                 1.7025                 1.2435
 Frc consts  --      1.5098                 1.4718                 1.1884
 IR Inten    --      3.7914                 6.9946                53.5112

                     28                     29                     30
                      A                      A                      A
 Frequencies --   1281.8978              1339.3820              1385.4122
 Red. masses --      2.9722                 1.3777                 1.3618
 Frc consts  --      2.8776                 1.4562                 1.5400
 IR Inten    --    550.1454                 3.6585                 4.1099

                     31                     32                     33
                      A                      A                      A
 Frequencies --   1412.0947              1419.0585              1430.1540
 Red. masses --      1.3968                 1.2944                 1.5066
 Frc consts  --      1.6410                 1.5358                 1.8155
 IR Inten    --     13.6552                12.8974                68.7072

                     34                     35                     36
                      A                      A                      A
 Frequencies --   1442.2283              1489.7054              1495.7701
 Red. masses --      1.2616                 1.0551                 1.0453
 Frc consts  --      1.5462                 1.3796                 1.3780
 IR Inten    --      1.0397                24.7650                11.3081

                     37                     38                     39
                      A                      A                      A
 Frequencies --   1507.3016              1510.0410              1522.1663
 Red. masses --      1.0503                 1.0490                 1.0478
 Frc consts  --      1.4059                 1.4093                 1.4303
 IR Inten    --      2.6079                 0.2792                 8.6073

                     40                     41                     42
                      A                      A                      A
 Frequencies --   1525.4247              1530.0294              1786.6311
 Red. masses --      1.0868                 1.0663                10.7295
 Frc consts  --      1.4900                 1.4708                20.1789
 IR Inten    --      3.3391                14.5052               440.1724

                     43                     44                     45
                      A                      A                      A
 Frequencies --   3043.5203              3052.9010              3056.9812
 Red. masses --      1.0833                 1.0367                 1.0378
 Frc consts  --      5.9125                 5.6929                 5.7143
 IR Inten    --     24.5300                42.3155                35.9039

                     46                     47                     48
                      A                      A                      A
 Frequencies --   3079.2394              3089.5721              3116.5656
 Red. masses --      1.0564                 1.0371                 1.1019
 Frc consts  --      5.9016                 5.8328                 6.3059
 IR Inten    --     45.1069                 2.7469                20.8828

                     49                     50                     51
                      A                      A                      A
 Frequencies --   3119.4644              3128.6735              3132.0894
 Red. masses --      1.1013                 1.1086                 1.1019
 Frc consts  --      6.3141                 6.3935                 6.3691
 IR Inten    --     64.4458                96.9725                57.9894

                     52                     53                     54
                      A                      A                      A
 Frequencies --   3140.3164              3154.0158              3197.7361
 Red. masses --      1.1017                 1.1012                 1.1037
 Frc consts  --      6.4014                 6.4541                 6.6497
 IR Inten    --     47.3587                 7.0843                14.6390

 - Thermochemistry -
 -------------------
 Temperature   298.150 Kelvin.  Pressure   1.00000 Atm.
 Atom     1 has atomic number  6 and mass  12.00000

 Molecular mass:   116.08373 amu.
 Principal axes and moments of inertia in atomic units:
                           1         2         3
     Eigenvalues --   409.413911822.345272077.37429
           X            0.99971  -0.02273   0.00730
           Y            0.02251   0.99932   0.02935
           Z           -0.00797  -0.02917   0.99954
 This molecule is an asymmetric top.
 Rotational symmetry number  1.
 Rotational temperatures (Kelvin)      0.21156     0.04753     0.04169
 Rotational constants (GHZ):           4.40811     0.99034     0.86876
 Zero-point vibrational energy     460757.2 (Joules/Mol)
                                  110.12362 (Kcal/Mol)
 Warning -- explicit consideration of  13 degrees of freedom as
           vibrations may cause significant error
 Vibrational temperatures:     53.05    89.37   115.41   184.25   273.51
          (Kelvin)            308.28   343.87   384.12   437.79   567.76
                              617.73   707.22   874.61   921.09  1197.59
                             1323.72  1339.47  1353.98  1390.76  1413.68
                             1443.31  1534.79  1546.86  1671.02  1717.64
                             1742.80  1832.40  1844.36  1927.07  1993.30
                             2031.69  2041.71  2057.67  2075.04  2143.35
                             2152.08  2168.67  2172.61  2190.06  2194.75
                             2201.37  2570.56  4378.95  4392.44  4398.31
                             4430.34  4445.21  4484.04  4488.21  4501.46
                             4506.38  4518.21  4537.93  4600.83

 Zero-point correction=                           0.175493 (Hartree/Particle)
 Thermal correction to Energy=                    0.185614
 Thermal correction to Enthalpy=                  0.186558
 Thermal correction to Gibbs Free Energy=         0.139314
 Sum of electronic and zero-point Energies=           -386.165152
 Sum of electronic and thermal Energies=              -386.155032
 Sum of electronic and thermal Enthalpies=            -386.154088
 Sum of electronic and thermal Free Energies=         -386.201331

                     E (Thermal)             CV                S
                      KCal/Mol        Cal/Mol-Kelvin    Cal/Mol-Kelvin
 Total                  116.474             34.669             99.432
 Electronic               0.000              0.000              0.000
 Translational            0.889              2.981             40.163
 Rotational               0.889              2.981             28.829
 Vibrational            114.697             28.708             30.441
 Vibration     1          0.594              1.982              5.421
 Vibration     2          0.597              1.972              4.389
 Vibration     3          0.600              1.963              3.886
 Vibration     4          0.611              1.925              2.975
 Vibration     5          0.633              1.854              2.227
 Vibration     6          0.644              1.819              2.007
 Vibration     7          0.657              1.781              1.810
 Vibration     8          0.672              1.734              1.616
 Vibration     9          0.695              1.666              1.393
 Vibration    10          0.762              1.482              0.983
 Vibration    11          0.791              1.406              0.861
 Vibration    12          0.847              1.269              0.680
 Vibration    13          0.967              1.015              0.436

                           ! Non-Optimized Parameters !
 Normal termination of Gaussian 16 at Tue Mar  1 15:44:55 2022.

 ------------------------------------------
 #p b3lyp/6-31G(d) geom=allcheck guess=read
 ------------------------------------------

 Structure from the checkpoint file:  "82.n.pdb.xyz.mst.wat.chk"
 ------------
 82.n.pdb.xyz
 ------------
 Charge =  0 Multiplicity = 1

 SCF Done:  E(RB3LYP) =  -386.335478815     A.U. after   10 cycles
 Normal termination of Gaussian 16 at Tue Mar  1 15:45:26 2022.
 Gaussian 16:  ES64L-G16RevA.03 25-Dec-2016

 ----------------------------------------------------------------------
 #p b3lyp/6-31G(d) scrf=(iefpcm,read,solvent=water) geom=allcheck guess
 =read
 ----------------------------------------------------------------------

 Structure from the checkpoint file:  "82.n.pdb.xyz.mst.wat.chk"
 ------------
 82.n.pdb.xyz
 ------------
 Charge =  0 Multiplicity = 1

                         Standard orientation:
 ---------------------------------------------------------------------
 Center     Atomic      Atomic             Coordinates (Angstroms)
 Number     Number       Type             X           Y           Z
 ---------------------------------------------------------------------
      1          6           0        1.904333    1.396576    0.536197
      2          6           0        1.745566    0.152440   -0.342939
      3          6           0        2.941890   -0.795436   -0.203097
      4          6           0        0.461898   -0.600593   -0.019997
      5          8           0       -0.657820    0.280880   -0.281567
      6          6           0       -1.877174   -0.186471    0.037903
      7          6           0       -2.950676    0.821604   -0.278357
      8          8           0       -2.065007   -1.288426    0.520824
      9          1           0        2.801081    1.958074    0.256650
     10          1           0        1.040947    2.059483    0.437700
     11          1           0        1.998204    1.116723    1.591850
     12          1           0        1.680562    0.472544   -1.391016
     13          1           0        2.842931   -1.667643   -0.857985
     14          1           0        3.870631   -0.280729   -0.465665
     15          1           0        3.040428   -1.155837    0.827649
     16          1           0        0.353011   -1.493506   -0.641504
     17          1           0        0.428148   -0.908588    1.029182
     18          1           0       -2.771227    1.746150    0.276635
     19          1           0       -2.931197    1.068378   -1.343288
     20          1           0       -3.925930    0.416598   -0.012521
 ---------------------------------------------------------------------

 SCF Done:  E(RB3LYP) =  -386.340219359     A.U. after   10 cycles

 The electronic state is 1-A.
 Alpha  occ. eigenvalues --  -19.19130 -19.13883 -10.31995 -10.23605 -10.19166
 Alpha  occ. eigenvalues --  -10.19017 -10.17414 -10.17044  -1.10205  -1.01389
 Alpha  occ. eigenvalues --   -0.81099  -0.75391  -0.68732  -0.68286  -0.57530
 Alpha  occ. eigenvalues --   -0.56356  -0.49438  -0.48940  -0.47392  -0.45150
 Alpha  occ. eigenvalues --   -0.42957  -0.42044  -0.40683  -0.39156  -0.38152
 Alpha  occ. eigenvalues --   -0.36659  -0.36499  -0.33784  -0.33214  -0.32632
 Alpha  occ. eigenvalues --   -0.30185  -0.27629
 Alpha virt. eigenvalues --    0.01048   0.09005   0.10882   0.13141   0.13445
 Alpha virt. eigenvalues --    0.14730   0.15463   0.16051   0.17163   0.17781
 Alpha virt. eigenvalues --    0.18307   0.19317   0.20868   0.21631   0.23047

 Mulliken charges:
               1
     1  C   -0.452990
     2  C   -0.099091
     3  C   -0.458638
     4  C   -0.030553
     5  O   -0.459456
     6  C    0.623112
     7  C   -0.527424
     8  O   -0.531145
     9  H    0.149690
    10  H    0.154924
    11  H    0.144389
    12  H    0.142424
    13  H    0.151233
    14  H    0.155026
    15  H    0.149248
    16  H    0.159948
    17  H    0.156636
    18  H    0.195383
    19  H    0.195392
    20  H    0.181893
 Sum of Mulliken charges =  -0.00000

 Dipole moment (field-independent basis, Debye):
    X=              1.3613    Y=              2.0269    Z=             -1.0370  Tot=              2.6527
 Quadrupole moment (field-independent basis, Debye-Ang):
   XX=            -47.0403   YY=            -52.4907   ZZ=            -49.0126
   XY=             -7.0853   XZ=              2.4482   YZ=              1.8932

 Normal termination of Gaussian 16 at Tue Mar  1 15:46:06 2022.
