 Gaussian 16, Revision A.03,

 ----------------------------------------------------------------------
 #p b3lyp/6-31G(d) opt=(MaxStep=10,MaxCycles=1000) freq scf=(MaxCycle=2
 000,NoVarAcc,NoIncFock) scrf=(iefpcm,read,solvent=water)
 ----------------------------------------------------------------------

 ------------
 84.n.pdb.xyz
 ------------
 Symbolic Z-matrix:
 Charge =  0 Multiplicity = 1

 SCF Done:  E(RB3LYP) =  -1757.97036347     A.U. after   13 cycles
 SCF Done:  E(RB3LYP) =  -1757.97450564     A.U. after   10 cycles
 SCF Done:  E(RB3LYP) =  -1757.97702875     A.U. after   11 cycles
 SCF Done:  E(RB3LYP) =  -1757.97752982     A.U. after   10 cycles
 SCF Done:  E(RB3LYP) =  -1757.97777907     A.U. after   11 cycles
 SCF Done:  E(RB3LYP) =  -1757.97786145     A.U. after   10 cycles
 SCF Done:  E(RB3LYP) =  -1757.97795301     A.U. after   10 cycles
 SCF Done:  E(RB3LYP) =  -1757.97803774     A.U. after   10 cycles
 SCF Done:  E(RB3LYP) =  -1757.97790982     A.U. after   10 cycles
 SCF Done:  E(RB3LYP) =  -1757.97811505     A.U. after   10 cycles
 SCF Done:  E(RB3LYP) =  -1757.97831792     A.U. after   10 cycles
 SCF Done:  E(RB3LYP) =  -1757.97832742     A.U. after   10 cycles
 SCF Done:  E(RB3LYP) =  -1757.97834128     A.U. after    8 cycles
 SCF Done:  E(RB3LYP) =  -1757.97831476     A.U. after   10 cycles
 SCF Done:  E(RB3LYP) =  -1757.97832347     A.U. after    9 cycles
 SCF Done:  E(RB3LYP) =  -1757.97834478     A.U. after    9 cycles
 SCF Done:  E(RB3LYP) =  -1757.97832466     A.U. after    9 cycles
 Optimization completed.
    -- Stationary point found.
 Normal termination of Gaussian 16 at Tue Mar  1 21:31:06 2022.

 --------------------------------------------------------------------
 #P Geom=AllCheck Guess=TCheck SCRF=Check GenChk RB3LYP/6-31G(d) Freq
 --------------------------------------------------------------------

 Structure from the checkpoint file:  "84.n.pdb.xyz.mst.wat.chk"
 ------------
 84.n.pdb.xyz
 ------------
 Charge =  0 Multiplicity = 1

 SCF Done:  E(RB3LYP) =  -1757.97832466     A.U. after    1 cycles

  Exact polarizability: 287.754 -14.397 320.073  22.077  11.714 202.016
 Approx polarizability: 319.765 -14.435 365.337  31.433  12.708 240.166

                      1                      2                      3
                      A                      A                      A
 Frequencies --     21.4023                45.4860                59.8892
 Red. masses --     10.3427                 8.1358                 6.1190
 Frc consts  --      0.0028                 0.0099                 0.0129
 IR Inten    --      0.1558                 2.7116                 2.0139

                      4                      5                      6
                      A                      A                      A
 Frequencies --     70.4567               100.7681               121.4918
 Red. masses --      9.3436                 7.7405                 8.1651
 Frc consts  --      0.0273                 0.0463                 0.0710
 IR Inten    --      0.7666                 0.7142                 0.2284

                      7                      8                      9
                      A                      A                      A
 Frequencies --    140.1141               164.8929               204.4419
 Red. masses --      5.6688                 8.6476                 7.1740
 Frc consts  --      0.0656                 0.1385                 0.1767
 IR Inten    --      0.4227                 1.8732                 1.8436

                     10                     11                     12
                      A                      A                      A
 Frequencies --    207.3358               254.4409               278.5330
 Red. masses --      7.4474                 5.7270                 6.0816
 Frc consts  --      0.1886                 0.2185                 0.2780
 IR Inten    --      6.4362                13.5245                 0.6894

                     13                     14                     15
                      A                      A                      A
 Frequencies --    305.0377               320.3118               333.6889
 Red. masses --      3.7917                 7.4662                 3.1490
 Frc consts  --      0.2079                 0.4513                 0.2066
 IR Inten    --     53.9480                12.9918                52.9731

                     16                     17                     18
                      A                      A                      A
 Frequencies --    354.2865               379.5705               395.8704
 Red. masses --      5.7801                 5.7272                 1.9698
 Frc consts  --      0.4275                 0.4862                 0.1819
 IR Inten    --      7.8605                13.6192                78.4074

                     19                     20                     21
                      A                      A                      A
 Frequencies --    402.7157               428.6722               436.5777
 Red. masses --      7.7817                 5.7698                 6.4150
 Frc consts  --      0.7436                 0.6247                 0.7204
 IR Inten    --     29.2155                 1.1833                15.3013

                     22                     23                     24
                      A                      A                      A
 Frequencies --    459.6445               488.6981               512.5935
 Red. masses --      4.0353                 4.6102                 6.2260
 Frc consts  --      0.5023                 0.6487                 0.9638
 IR Inten    --      4.5590                11.2425                 9.5122

                     25                     26                     27
                      A                      A                      A
 Frequencies --    527.9871               541.9914               596.8859
 Red. masses --      4.9877                 4.2113                 2.5117
 Frc consts  --      0.8192                 0.7289                 0.5272
 IR Inten    --      7.0613                 7.8329                87.1391

                     28                     29                     30
                      A                      A                      A
 Frequencies --    627.1725               650.5383               667.9059
 Red. masses --      2.1700                 4.7093                 5.2575
 Frc consts  --      0.5029                 1.1742                 1.3819
 IR Inten    --     74.7186                 6.1059                10.1205

                     31                     32                     33
                      A                      A                      A
 Frequencies --    687.0637               708.2969               723.3526
 Red. masses --      5.5536                 6.2046                 5.2299
 Frc consts  --      1.5446                 1.8340                 1.6123
 IR Inten    --     50.1606                25.8542                39.9951

                     34                     35                     36
                      A                      A                      A
 Frequencies --    730.8533               741.6860               767.8456
 Red. masses --      5.8328                 4.3050                 1.8835
 Frc consts  --      1.8356                 1.3953                 0.6543
 IR Inten    --     57.2198                15.4079                39.1104

                     37                     38                     39
                      A                      A                      A
 Frequencies --    782.1988               824.4564               842.8447
 Red. masses --      2.2947                 4.1436                 1.7715
 Frc consts  --      0.8272                 1.6595                 0.7414
 IR Inten    --     14.7745                44.8577                56.6797

                     40                     41                     42
                      A                      A                      A
 Frequencies --    866.2199               884.2284               909.4607
 Red. masses --      4.4158                 1.4315                 1.4815
 Frc consts  --      1.9522                 0.6594                 0.7220
 IR Inten    --      5.3655                 1.3745                18.1881

                     43                     44                     45
                      A                      A                      A
 Frequencies --    935.0030               955.4569               966.6686
 Red. masses --      4.4365                 4.1287                 1.4785
 Frc consts  --      2.2852                 2.2207                 0.8140
 IR Inten    --     46.3513                24.3115                 4.4474

                     46                     47                     48
                      A                      A                      A
 Frequencies --    973.9144              1003.9841              1034.0967
 Red. masses --      1.3500                 1.2916                 7.5503
 Frc consts  --      0.7544                 0.7670                 4.7571
 IR Inten    --      1.2389                 0.7134                93.7354

                     49                     50                     51
                      A                      A                      A
 Frequencies --   1056.0207              1078.5275              1118.0171
 Red. masses --      6.6246                 2.2906                 2.1688
 Frc consts  --      4.3527                 1.5699                 1.5972
 IR Inten    --    102.4390                17.0098                93.0755

                     52                     53                     54
                      A                      A                      A
 Frequencies --   1146.8795              1153.2831              1167.4023
 Red. masses --      2.8196                 2.0647                 1.7288
 Frc consts  --      2.1851                 1.6180                 1.3882
 IR Inten    --    373.4441                81.6651                20.7230

                     55                     56                     57
                      A                      A                      A
 Frequencies --   1196.4986              1204.1824              1247.2309
 Red. masses --      1.0864                 1.8879                 2.0960
 Frc consts  --      0.9164                 1.6129                 1.9210
 IR Inten    --      1.0535                12.3338                35.9829

                     58                     59                     60
                      A                      A                      A
 Frequencies --   1263.3714              1286.2661              1295.9270
 Red. masses --      2.0182                 1.4427                 1.5664
 Frc consts  --      1.8980                 1.4063                 1.5499
 IR Inten    --     58.6650                49.1376                 8.9147

                     61                     62                     63
                      A                      A                      A
 Frequencies --   1312.2873              1340.4277              1348.4523
 Red. masses --      3.5410                 5.1683                 2.3258
 Frc consts  --      3.5928                 5.4712                 2.4917
 IR Inten    --     79.9074                28.0230               221.9106

                     64                     65                     66
                      A                      A                      A
 Frequencies --   1364.7024              1370.8685              1419.9259
 Red. masses --      1.9296                 3.4206                 2.6263
 Frc consts  --      2.1174                 3.7874                 3.1198
 IR Inten    --    100.7751                83.2378                32.0863

                     67                     68                     69
                      A                      A                      A
 Frequencies --   1462.7657              1476.3786              1509.7019
 Red. masses --      1.5495                 2.0927                 2.7379
 Frc consts  --      1.9534                 2.6875                 3.6766
 IR Inten    --     62.9980                26.9772               171.0515

                     70                     71                     72
                      A                      A                      A
 Frequencies --   1520.0916              1528.9327              1615.7849
 Red. masses --      2.4858                 2.0632                 5.7788
 Frc consts  --      3.3842                 2.8416                 8.8891
 IR Inten    --     29.7703                64.3937                42.0174

                     73                     74                     75
                      A                      A                      A
 Frequencies --   1621.9747              1649.8135              1651.1122
 Red. masses --      5.5589                 6.0801                 6.2148
 Frc consts  --      8.6165                 9.7506                 9.9822
 IR Inten    --      9.9685                23.5527                16.8279

                     76                     77                     78
                      A                      A                      A
 Frequencies --   1677.2400              1756.6660              3055.4088
 Red. masses --     11.9457                 7.8982                 1.0837
 Frc consts  --     19.7994                14.3601                 5.9608
 IR Inten    --    246.3058              1195.9400                21.8974

                     79                     80                     81
                      A                      A                      A
 Frequencies --   3217.0212              3225.9550              3232.9425
 Red. masses --      1.0863                 1.0902                 1.0893
 Frc consts  --      6.6241                 6.6844                 6.7077
 IR Inten    --      0.3591                13.6677                 6.8975

                     82                     83                     84
                      A                      A                      A
 Frequencies --   3235.8170              3245.1909              3245.3223
 Red. masses --      1.0948                 1.0915                 1.0957
 Frc consts  --      6.7537                 6.7727                 6.7989
 IR Inten    --     25.9478                 2.5938                12.4725

                     85                     86                     87
                      A                      A                      A
 Frequencies --   3250.9420              3553.5904              3601.1953
 Red. masses --      1.0948                 1.0775                 1.0648
 Frc consts  --      6.8175                 8.0165                 8.1362
 IR Inten    --      4.9609               162.0685               145.6247

 - Thermochemistry -
 -------------------
 Temperature   298.150 Kelvin.  Pressure   1.00000 Atm.
 Atom     1 has atomic number  8 and mass  15.99491

 Molecular mass:   320.01193 amu.
 Principal axes and moments of inertia in atomic units:
                           1         2         3
     Eigenvalues --  6833.286087318.04104**********
           X            0.98112  -0.19309  -0.01095
           Y            0.19321   0.98108   0.01204
           Z            0.00842  -0.01393   0.99987
 This molecule is an asymmetric top.
 Rotational symmetry number  1.
 Warning -- assumption of classical behavior for rotation
           may cause significant error
 Rotational temperatures (Kelvin)      0.01268     0.01184     0.00756
 Rotational constants (GHZ):           0.26411     0.24662     0.15752
 Zero-point vibrational energy     587014.4 (Joules/Mol)
                                  140.29982 (Kcal/Mol)
 Warning -- explicit consideration of  27 degrees of freedom as
           vibrations may cause significant error
 Vibrational temperatures:     30.79    65.44    86.17   101.37   144.98
          (Kelvin)            174.80   201.59   237.24   294.15   298.31
                              366.08   400.75   438.88   460.86   480.10
                              509.74   546.12   569.57   579.42   616.76
                              628.14   661.33   703.13   737.51   759.66
                              779.80   858.79   902.36   935.98   960.97
                              988.53  1019.08  1040.74  1051.53  1067.12
                             1104.76  1125.41  1186.21  1212.67  1246.30
                             1272.21  1308.51  1345.26  1374.69  1390.82
                             1401.25  1444.51  1487.83  1519.38  1551.76
                             1608.58  1650.10  1659.32  1679.63  1721.49
                             1732.55  1794.49  1817.71  1850.65  1864.55
                             1888.09  1928.58  1940.12  1963.50  1972.37
                             2042.96  2104.59  2124.18  2172.12  2187.07
                             2199.79  2324.75  2333.66  2373.71  2375.58
                             2413.17  2527.45  4396.05  4628.58  4641.43
                             4651.48  4655.62  4669.11  4669.29  4677.38
                             5112.82  5181.32

 Zero-point correction=                           0.223582 (Hartree/Particle)
 Thermal correction to Energy=                    0.240791
 Thermal correction to Enthalpy=                  0.241736
 Thermal correction to Gibbs Free Energy=         0.177180
 Sum of electronic and zero-point Energies=          -1757.754743
 Sum of electronic and thermal Energies=             -1757.737533
 Sum of electronic and thermal Enthalpies=           -1757.736589
 Sum of electronic and thermal Free Energies=        -1757.801144

                     E (Thermal)             CV                S
                      KCal/Mol        Cal/Mol-Kelvin    Cal/Mol-Kelvin
 Total                  151.099             66.964            135.868
 Electronic               0.000              0.000              0.000
 Translational            0.889              2.981             43.185
 Rotational               0.889              2.981             34.704
 Vibrational            149.321             61.003             57.979
 Vibration     1          0.593              1.985              6.500
 Vibration     2          0.595              1.979              5.005
 Vibration     3          0.597              1.973              4.461
 Vibration     4          0.598              1.968              4.141
 Vibration     5          0.604              1.949              3.439
 Vibration     6          0.609              1.931              3.077
 Vibration     7          0.615              1.913              2.802
 Vibration     8          0.623              1.886              2.493
 Vibration     9          0.640              1.834              2.093
 Vibration    10          0.641              1.829              2.067
 Vibration    11          0.665              1.755              1.700
 Vibration    12          0.679              1.713              1.543
 Vibration    13          0.696              1.664              1.389
 Vibration    14          0.706              1.635              1.309
 Vibration    15          0.715              1.608              1.242
 Vibration    16          0.730              1.566              1.147
 Vibration    17          0.750              1.514              1.041
 Vibration    18          0.763              1.479              0.978
 Vibration    19          0.768              1.464              0.953
 Vibration    20          0.790              1.408              0.863
 Vibration    21          0.797              1.390              0.837
 Vibration    22          0.818              1.340              0.767
 Vibration    23          0.845              1.275              0.687
 Vibration    24          0.868              1.222              0.627
 Vibration    25          0.883              1.188              0.592
 Vibration    26          0.897              1.157              0.561
 Vibration    27          0.955              1.038              0.455

                           ! Non-Optimized Parameters !
 Normal termination of Gaussian 16 at Tue Mar  1 22:14:05 2022.

 ------------------------------------------
 #p b3lyp/6-31G(d) geom=allcheck guess=read
 ------------------------------------------

 Structure from the checkpoint file:  "84.n.pdb.xyz.mst.wat.chk"
 ------------
 84.n.pdb.xyz
 ------------
 Charge =  0 Multiplicity = 1

 SCF Done:  E(RB3LYP) =  -1757.95429056     A.U. after   12 cycles
 Normal termination of Gaussian 16 at Tue Mar  1 22:17:04 2022.
 Gaussian 16:  ES64L-G16RevA.03 25-Dec-2016

 ----------------------------------------------------------------------
 #p b3lyp/6-31G(d) scrf=(iefpcm,read,solvent=water) geom=allcheck guess
 =read
 ----------------------------------------------------------------------

 Structure from the checkpoint file:  "84.n.pdb.xyz.mst.wat.chk"
 ------------
 84.n.pdb.xyz
 ------------
 Charge =  0 Multiplicity = 1

                         Standard orientation:
 ---------------------------------------------------------------------
 Center     Atomic      Atomic             Coordinates (Angstroms)
 Number     Number       Type             X           Y           Z
 ---------------------------------------------------------------------
      1          8           0        0.477473   -3.796170   -1.230699
      2          6           0        0.782137   -2.550835   -0.679114
      3          7           0       -0.415839   -1.880130   -0.192042
      4          6           0       -0.349245   -0.626578    0.078771
      5          6           0        0.887196    0.195208    0.050255
      6          6           0        0.797825    1.535410   -0.368164
      7          6           0        1.915655    2.351931   -0.356704
      8         17           0        1.781228    4.016398   -0.909232
      9          6           0        3.147800    1.878283    0.099821
     10          6           0        3.248451    0.561842    0.522068
     11          6           0        2.138006   -0.296579    0.491376
     12          7           0        2.307877   -1.601097    0.986117
     13          6           0        1.741460   -2.739907    0.503046
     14          8           0        1.956020   -3.854846    0.969777
     15          6           0       -1.611470    0.059035    0.502379
     16          6           0       -2.781792    0.077208   -0.270722
     17         17           0       -2.818453   -0.613356   -1.891088
     18          6           0       -3.950017    0.683530    0.188804
     19          6           0       -3.967877    1.282345    1.447202
     20          6           0       -2.815280    1.287456    2.233376
     21          6           0       -1.651999    0.690290    1.755971
     22          1           0        0.651370   -4.451169   -0.523420
     23          1           0        1.271194   -1.936464   -1.444588
     24          1           0       -0.157803    1.923767   -0.697363
     25          1           0        4.013277    2.528665    0.119304
     26          1           0        4.200147    0.183197    0.876681
     27          1           0        3.042447   -1.740926    1.675980
     28          1           0       -4.831643    0.687350   -0.440469
     29          1           0       -4.879606    1.748714    1.803468
     30          1           0       -2.819981    1.755730    3.211133
     31          1           0       -0.753889    0.694307    2.363384
 ---------------------------------------------------------------------

 SCF Done:  E(RB3LYP) =  -1757.97629852     A.U. after   12 cycles

 The electronic state is 1-A.
 Alpha  occ. eigenvalues -- -101.55947-101.55424 -19.15156 -19.14576 -14.39005
 Alpha  occ. eigenvalues --  -14.34392 -10.31128 -10.27722 -10.26378 -10.26367
 Alpha  occ. eigenvalues --  -10.26302 -10.26012 -10.22801 -10.22149 -10.22004
 Alpha  occ. eigenvalues --  -10.21904 -10.21427 -10.20807 -10.20786 -10.20578
 Alpha  occ. eigenvalues --  -10.20188  -9.47568  -9.47043  -7.23962  -7.23439
 Alpha  occ. eigenvalues --   -7.22998  -7.22966  -7.22485  -7.22428  -1.07147
 Alpha  occ. eigenvalues --   -1.02882  -0.97109  -0.93563  -0.90102  -0.89434
 Alpha  occ. eigenvalues --   -0.84779  -0.84150  -0.79320  -0.76992  -0.75285
 Alpha  occ. eigenvalues --   -0.74255  -0.71336  -0.67421  -0.63889  -0.62477
 Alpha  occ. eigenvalues --   -0.61350  -0.60080  -0.57754  -0.55650  -0.53150
 Alpha  occ. eigenvalues --   -0.52070  -0.51111  -0.49266  -0.48914  -0.48319
 Alpha  occ. eigenvalues --   -0.47312  -0.46252  -0.45458  -0.44416  -0.43552
 Alpha  occ. eigenvalues --   -0.42994  -0.42596  -0.40693  -0.40438  -0.39998
 Alpha  occ. eigenvalues --   -0.38721  -0.37497  -0.36998  -0.36388  -0.35684
 Alpha  occ. eigenvalues --   -0.34091  -0.33266  -0.32492  -0.31800  -0.30800
 Alpha  occ. eigenvalues --   -0.29957  -0.29003  -0.27984  -0.26747  -0.25722
 Alpha  occ. eigenvalues --   -0.25120  -0.23946
 Alpha virt. eigenvalues --   -0.06385  -0.03477  -0.02803  -0.01596   0.00673
 Alpha virt. eigenvalues --    0.01976   0.02570   0.03570   0.10323   0.11195
 Alpha virt. eigenvalues --    0.11827   0.12180   0.13001   0.14202   0.14651

 Mulliken charges:
               1
     1  O   -0.664656
     2  C    0.151604
     3  N   -0.436117
     4  C    0.175958
     5  C    0.101900
     6  C   -0.190899
     7  C   -0.070015
     8  Cl  -0.028481
     9  C   -0.133386
    10  C   -0.169766
    11  C    0.301513
    12  N   -0.694559
    13  C    0.578879
    14  O   -0.553518
    15  C    0.088099
    16  C   -0.112463
    17  Cl  -0.023841
    18  C   -0.144138
    19  C   -0.128735
    20  C   -0.142761
    21  C   -0.158871
    22  H    0.431079
    23  H    0.180808
    24  H    0.186360
    25  H    0.187473
    26  H    0.185165
    27  H    0.404252
    28  H    0.176643
    29  H    0.168684
    30  H    0.165789
    31  H    0.168000
 Sum of Mulliken charges =  -0.00000

 Dipole moment (field-independent basis, Debye):
    X=              3.3689    Y=              5.5099    Z=              4.6456  Tot=              7.9555
 Quadrupole moment (field-independent basis, Debye-Ang):
   XX=           -105.4822   YY=           -157.5110   ZZ=           -130.2896
   XY=             -5.9144   XZ=             -0.5808   YZ=              1.4575

 Normal termination of Gaussian 16 at Tue Mar  1 22:20:38 2022.
