 Gaussian 16, Revision A.03,

 ----------------------------------------------------------------------
 #p b3lyp/6-31G(d) opt=(MaxStep=10,MaxCycles=1000) freq scf=(MaxCycle=2
 000,NoVarAcc,NoIncFock) scrf=(iefpcm,read,solvent=water)
 ----------------------------------------------------------------------

 ------------
 85.n.pdb.xyz
 ------------
 Symbolic Z-matrix:
 Charge =  0 Multiplicity = 1

 SCF Done:  E(RB3LYP) =  -633.443710108     A.U. after   12 cycles
 SCF Done:  E(RB3LYP) =  -633.446498939     A.U. after   10 cycles
 SCF Done:  E(RB3LYP) =  -633.447026645     A.U. after   10 cycles
 SCF Done:  E(RB3LYP) =  -633.447141763     A.U. after    9 cycles
 SCF Done:  E(RB3LYP) =  -633.447254633     A.U. after    9 cycles
 SCF Done:  E(RB3LYP) =  -633.447090787     A.U. after   10 cycles
 SCF Done:  E(RB3LYP) =  -633.447494141     A.U. after   10 cycles
 SCF Done:  E(RB3LYP) =  -633.447678171     A.U. after   10 cycles
 SCF Done:  E(RB3LYP) =  -633.447705715     A.U. after    9 cycles
 SCF Done:  E(RB3LYP) =  -633.447716050     A.U. after    9 cycles
 SCF Done:  E(RB3LYP) =  -633.447717501     A.U. after    7 cycles
 SCF Done:  E(RB3LYP) =  -633.447717521     A.U. after    7 cycles
 SCF Done:  E(RB3LYP) =  -633.447717409     A.U. after    7 cycles
 SCF Done:  E(RB3LYP) =  -633.447716950     A.U. after    7 cycles
 SCF Done:  E(RB3LYP) =  -633.447716251     A.U. after    7 cycles
 SCF Done:  E(RB3LYP) =  -633.447715761     A.U. after    7 cycles
 SCF Done:  E(RB3LYP) =  -633.447715738     A.U. after    6 cycles
 Optimization completed.
    -- Stationary point found.
 Normal termination of Gaussian 16 at Tue Mar  1 21:35:07 2022.

 --------------------------------------------------------------------
 #P Geom=AllCheck Guess=TCheck SCRF=Check GenChk RB3LYP/6-31G(d) Freq
 --------------------------------------------------------------------

 Structure from the checkpoint file:  "85.n.pdb.xyz.mst.wat.chk"
 ------------
 85.n.pdb.xyz
 ------------
 Charge =  0 Multiplicity = 1

 SCF Done:  E(RB3LYP) =  -633.447715738     A.U. after    1 cycles

  Exact polarizability: 264.060 -26.970 189.372  -0.378  -0.898  90.709
 Approx polarizability: 271.923 -32.025 221.642   1.101  -1.825 102.373

                      1                      2                      3
                      A                      A                      A
 Frequencies --     20.5475                56.5928                57.8551
 Red. masses --      3.2738                 1.9066                 4.3542
 Frc consts  --      0.0008                 0.0036                 0.0086
 IR Inten    --      0.3581                 2.3930                 1.9202

                      4                      5                      6
                      A                      A                      A
 Frequencies --     70.8489               104.8743               113.3631
 Red. masses --      5.1531                 3.9739                 2.1325
 Frc consts  --      0.0152                 0.0258                 0.0161
 IR Inten    --      1.9945                 0.9031                 0.1189

                      7                      8                      9
                      A                      A                      A
 Frequencies --    161.4846               171.7160               240.1872
 Red. masses --      3.9794                 3.1361                 4.7869
 Frc consts  --      0.0611                 0.0545                 0.1627
 IR Inten    --      1.8502                 2.1045                 7.5689

                     10                     11                     12
                      A                      A                      A
 Frequencies --    253.3907               273.5014               296.5805
 Red. masses --      1.1434                 4.8672                 5.2164
 Frc consts  --      0.0433                 0.2145                 0.2703
 IR Inten    --      0.0389                 8.1782                11.6373

                     13                     14                     15
                      A                      A                      A
 Frequencies --    377.6874               412.7957               415.8903
 Red. masses --      6.2510                 3.1562                 1.5471
 Frc consts  --      0.5254                 0.3169                 0.1577
 IR Inten    --      1.1950                 1.6755                19.2807

                     16                     17                     18
                      A                      A                      A
 Frequencies --    430.8048               435.3814               484.5292
 Red. masses --      3.0849                 1.6075                 1.3858
 Frc consts  --      0.3373                 0.1795                 0.1917
 IR Inten    --     28.3644                18.8970               736.6761

                     19                     20                     21
                      A                      A                      A
 Frequencies --    527.2451               532.9476               633.5687
 Red. masses --      2.4600                 5.6476                 5.4886
 Frc consts  --      0.4029                 0.9451                 1.2981
 IR Inten    --    246.2538                 3.0234                 7.6320

                     22                     23                     24
                      A                      A                      A
 Frequencies --    651.4310               704.9478               752.5011
 Red. masses --      6.9478                 3.7742                 1.0760
 Frc consts  --      1.7371                 1.1051                 0.3590
 IR Inten    --      3.3424                15.8484                10.7077

                     25                     26                     27
                      A                      A                      A
 Frequencies --    766.7239               811.6502               826.4470
 Red. masses --      5.8896                 1.1431                 5.0635
 Frc consts  --      2.0399                 0.4437                 2.0377
 IR Inten    --     48.4326                 3.8001                 1.0940

                     28                     29                     30
                      A                      A                      A
 Frequencies --    835.8168               852.4595               866.6316
 Red. masses --      1.2555                 1.8985                 5.7040
 Frc consts  --      0.5168                 0.8128                 2.5241
 IR Inten    --      0.1819                54.2042                 5.2721

                     31                     32                     33
                      A                      A                      A
 Frequencies --    921.0011               956.9332               974.6687
 Red. masses --      2.0413                 1.1580                 1.3071
 Frc consts  --      1.0202                 0.6248                 0.7316
 IR Inten    --      8.6018                 0.0086                 0.0181

                     34                     35                     36
                      A                      A                      A
 Frequencies --    983.6468               995.5327              1026.3825
 Red. masses --      1.2849                 5.1109                 2.8368
 Frc consts  --      0.7325                 2.9844                 1.7607
 IR Inten    --      0.1490                29.9818                16.4732

                     37                     38                     39
                      A                      A                      A
 Frequencies --   1047.3634              1078.5491              1098.9213
 Red. masses --      3.0943                 2.1313                 1.4636
 Frc consts  --      1.9999                 1.4607                 1.0414
 IR Inten    --     11.0529                17.7755                22.9750

                     40                     41                     42
                      A                      A                      A
 Frequencies --   1139.9195              1157.7331              1160.0345
 Red. masses --      3.6607                 2.9759                 1.1782
 Frc consts  --      2.8026                 2.3501                 0.9341
 IR Inten    --    249.0015                76.2195                48.5488

                     43                     44                     45
                      A                      A                      A
 Frequencies --   1195.6721              1197.7867              1257.5791
 Red. masses --      1.6186                 1.2308                 1.2724
 Frc consts  --      1.3633                 1.0404                 1.1856
 IR Inten    --     10.0517               498.3854                 0.9549

                     46                     47                     48
                      A                      A                      A
 Frequencies --   1290.6287              1315.8883              1317.0424
 Red. masses --      1.8963                 1.4465                 1.4232
 Frc consts  --      1.8611                 1.4757                 1.4545
 IR Inten    --    628.9597               236.5314               208.2922

                     49                     50                     51
                      A                      A                      A
 Frequencies --   1338.6365              1344.8533              1349.5604
 Red. masses --      1.0787                 1.7380                 2.3454
 Frc consts  --      1.1389                 1.8520                 2.5168
 IR Inten    --      0.2086                20.1750               197.0836

                     52                     53                     54
                      A                      A                      A
 Frequencies --   1391.9895              1397.9890              1432.3486
 Red. masses --      3.7713                 1.5589                 1.4665
 Frc consts  --      4.3055                 1.7951                 1.7727
 IR Inten    --      4.1403                52.3958                 7.0550

                     55                     56                     57
                      A                      A                      A
 Frequencies --   1433.5604              1491.5978              1504.8488
 Red. masses --      1.4219                 3.0626                 1.0589
 Frc consts  --      1.7217                 4.0146                 1.4128
 IR Inten    --     12.7739                21.0779                 0.4580

                     58                     59                     60
                      A                      A                      A
 Frequencies --   1517.2140              1517.9752              1528.2723
 Red. masses --      1.0824                 1.0415                 1.0843
 Frc consts  --      1.4680                 1.4139                 1.4921
 IR Inten    --      3.4485                 7.5057                 0.2671

                     61                     62                     63
                      A                      A                      A
 Frequencies --   1541.4055              1565.1541              1615.1977
 Red. masses --      1.1015                 2.7387                 6.2895
 Frc consts  --      1.5419                 3.9528                 9.6676
 IR Inten    --     14.1221                68.0264                27.5596

                     64                     65                     66
                      A                      A                      A
 Frequencies --   1657.5929              1674.9928              1739.0733
 Red. masses --      5.1038                 1.1791                12.0454
 Frc consts  --      8.2622                 1.9491                21.4638
 IR Inten    --    626.8478               288.6259               545.0361

                     67                     68                     69
                      A                      A                      A
 Frequencies --   3042.4536              3053.8154              3061.0160
 Red. masses --      1.0593                 1.0372                 1.0595
 Frc consts  --      5.7769                 5.6990                 5.8490
 IR Inten    --     39.8601                30.1774                56.5841

                     70                     71                     72
                      A                      A                      A
 Frequencies --   3070.6352              3079.6749              3099.5408
 Red. masses --      1.1011                 1.0566                 1.1043
 Frc consts  --      6.1168                 5.9042                 6.2506
 IR Inten    --     15.6899                66.0904                18.3105

                     73                     74                     75
                      A                      A                      A
 Frequencies --   3118.6493              3124.2235              3129.3852
 Red. masses --      1.1036                 1.1023                 1.1094
 Frc consts  --      6.3241                 6.3391                 6.4012
 IR Inten    --     76.7474                67.5990               127.5834

                     76                     77                     78
                      A                      A                      A
 Frequencies --   3204.1873              3208.8566              3228.7725
 Red. masses --      1.0891                 1.0887                 1.0927
 Frc consts  --      6.5880                 6.6050                 6.7116
 IR Inten    --     22.3455                25.7405                16.3811

                     79                     80                     81
                      A                      A                      A
 Frequencies --   3237.6008              3555.8329              3656.6393
 Red. masses --      1.0926                 1.0480                 1.1013
 Frc consts  --      6.7478                 7.8070                 8.6759
 IR Inten    --     10.6254               156.3129                66.4569

 - Thermochemistry -
 -------------------
 Temperature   298.150 Kelvin.  Pressure   1.00000 Atm.
 Atom     1 has atomic number  6 and mass  12.00000

 Molecular mass:   193.11028 amu.
 Principal axes and moments of inertia in atomic units:
                           1         2         3
     Eigenvalues --   917.287507589.513698460.64819
           X            0.99998   0.00648  -0.00114
           Y           -0.00648   0.99998   0.00249
           Z            0.00115  -0.00248   1.00000
 This molecule is an asymmetric top.
 Rotational symmetry number  1.
 Warning -- assumption of classical behavior for rotation
           may cause significant error
 Rotational temperatures (Kelvin)      0.09442     0.01141     0.01024
 Rotational constants (GHZ):           1.96748     0.23779     0.21331
 Zero-point vibrational energy     646995.7 (Joules/Mol)
                                  154.63568 (Kcal/Mol)
 Warning -- explicit consideration of  20 degrees of freedom as
           vibrations may cause significant error
 Vibrational temperatures:     29.56    81.42    83.24   101.94   150.89
          (Kelvin)            163.10   232.34   247.06   345.58   364.57
                              393.51   426.71   543.41   593.92   598.37
                              619.83   626.42   697.13   758.59   766.79
                              911.56   937.26  1014.26  1082.68  1103.14
                             1167.78  1189.07  1202.55  1226.50  1246.89
                             1325.12  1376.81  1402.33  1415.25  1432.35
                             1476.74  1506.92  1551.79  1581.10  1640.09
                             1665.72  1669.03  1720.31  1723.35  1809.38
                             1856.93  1893.27  1894.93  1926.00  1934.94
                             1941.72  2002.76  2011.39  2060.83  2062.57
                             2146.08  2165.14  2182.93  2184.03  2198.84
                             2217.74  2251.91  2323.91  2384.91  2409.94
                             2502.14  4377.41  4393.76  4404.12  4417.96
                             4430.97  4459.55  4487.04  4495.06  4502.49
                             4610.11  4616.83  4645.48  4658.19  5116.05
                             5261.09

 Zero-point correction=                           0.246428 (Hartree/Particle)
 Thermal correction to Energy=                    0.260711
 Thermal correction to Enthalpy=                  0.261655
 Thermal correction to Gibbs Free Energy=         0.203561
 Sum of electronic and zero-point Energies=           -633.201288
 Sum of electronic and thermal Energies=              -633.187005
 Sum of electronic and thermal Enthalpies=            -633.186061
 Sum of electronic and thermal Free Energies=         -633.244155

                     E (Thermal)             CV                S
                      KCal/Mol        Cal/Mol-Kelvin    Cal/Mol-Kelvin
 Total                  163.599             52.899            122.270
 Electronic               0.000              0.000              0.000
 Translational            0.889              2.981             41.680
 Rotational               0.889              2.981             32.443
 Vibrational            161.821             46.937             48.147
 Vibration     1          0.593              1.986              6.581
 Vibration     2          0.596              1.975              4.573
 Vibration     3          0.596              1.974              4.529
 Vibration     4          0.598              1.968              4.130
 Vibration     5          0.605              1.945              3.362
 Vibration     6          0.607              1.938              3.210
 Vibration     7          0.622              1.890              2.532
 Vibration     8          0.626              1.877              2.417
 Vibration     9          0.657              1.779              1.801
 Vibration    10          0.665              1.757              1.707
 Vibration    11          0.676              1.722              1.574
 Vibration    12          0.690              1.680              1.436
 Vibration    13          0.748              1.518              1.048
 Vibration    14          0.777              1.442              0.917
 Vibration    15          0.779              1.436              0.906
 Vibration    16          0.792              1.403              0.856
 Vibration    17          0.796              1.393              0.841
 Vibration    18          0.841              1.284              0.698
 Vibration    19          0.882              1.190              0.593
 Vibration    20          0.888              1.177              0.581

 Optimization completed.
    -- Stationary point found.
 Normal termination of Gaussian 16 at Tue Mar  1 21:50:42 2022.

 ------------------------------------------
 #p b3lyp/6-31G(d) geom=allcheck guess=read
 ------------------------------------------

 Structure from the checkpoint file:  "85.n.pdb.xyz.mst.wat.chk"
 ------------
 85.n.pdb.xyz
 ------------
 Charge =  0 Multiplicity = 1

 SCF Done:  E(RB3LYP) =  -633.430949122     A.U. after   12 cycles
 Normal termination of Gaussian 16 at Tue Mar  1 21:52:04 2022.
 Gaussian 16:  ES64L-G16RevA.03 25-Dec-2016

 ----------------------------------------------------------------------
 #p b3lyp/6-31G(d) scrf=(iefpcm,read,solvent=water) geom=allcheck guess
 =read
 ----------------------------------------------------------------------

 Structure from the checkpoint file:  "85.n.pdb.xyz.mst.wat.chk"
 ------------
 85.n.pdb.xyz
 ------------
 Charge =  0 Multiplicity = 1

                         Standard orientation:
 ---------------------------------------------------------------------
 Center     Atomic      Atomic             Coordinates (Angstroms)
 Number     Number       Type             X           Y           Z
 ---------------------------------------------------------------------
      1          6           0       -5.807379   -1.267805   -0.023050
      2          6           0       -4.841176   -0.081377    0.001122
      3          6           0       -3.372167   -0.517489   -0.005896
      4          6           0       -2.420804    0.665796    0.019101
      5          8           0       -1.072430    0.144489    0.015984
      6          6           0       -0.076027    1.056532    0.004670
      7          8           0       -0.289269    2.263162   -0.003411
      8          6           0        1.261488    0.441736    0.003623
      9          6           0        2.390683    1.277746   -0.012664
     10          6           0        3.671155    0.751881   -0.015117
     11          6           0        3.872118   -0.647905    0.001050
     12          7           0        5.139055   -1.178900    0.058459
     13          6           0        2.734713   -1.487967    0.014370
     14          6           0        1.458230   -0.950121    0.016265
     15          1           0       -5.660180   -1.914552    0.848722
     16          1           0       -5.658798   -1.879693   -0.919421
     17          1           0       -6.848554   -0.930602   -0.017219
     18          1           0       -5.033490    0.564751   -0.864557
     19          1           0       -5.035139    0.530599    0.891233
     20          1           0       -3.171061   -1.154514    0.862115
     21          1           0       -3.167967   -1.121459   -0.898011
     22          1           0       -2.559364    1.278507    0.914403
     23          1           0       -2.551227    1.311511   -0.853679
     24          1           0        2.240237    2.351379   -0.026650
     25          1           0        4.532785    1.411907   -0.028665
     26          1           0        5.898205   -0.585811   -0.255910
     27          1           0        5.240844   -2.144547   -0.231576
     28          1           0        2.871544   -2.564760    0.024032
     29          1           0        0.597366   -1.607785    0.024543
 ---------------------------------------------------------------------

 SCF Done:  E(RB3LYP) =  -633.446753995     A.U. after   11 cycles

 The electronic state is 1-A.
 Alpha  occ. eigenvalues --  -19.18690 -19.13082 -14.33999 -10.31267 -10.23963
 Alpha  occ. eigenvalues --  -10.23625 -10.19707 -10.19630 -10.19169 -10.18731
 Alpha  occ. eigenvalues --  -10.18723 -10.18178 -10.18149 -10.17150  -1.09591
 Alpha  occ. eigenvalues --   -1.00609  -0.92151  -0.84535  -0.80012  -0.75402
 Alpha  occ. eigenvalues --   -0.74950  -0.72326  -0.65457  -0.61868  -0.61053
 Alpha  occ. eigenvalues --   -0.58329  -0.56187  -0.53125  -0.51165  -0.50006
 Alpha  occ. eigenvalues --   -0.49427  -0.46647  -0.45081  -0.44472  -0.42798
 Alpha  occ. eigenvalues --   -0.42484  -0.42061  -0.40974  -0.40236  -0.38790
 Alpha  occ. eigenvalues --   -0.37963  -0.35990  -0.35689  -0.34299  -0.33620
 Alpha  occ. eigenvalues --   -0.33186  -0.32726  -0.31186  -0.29870  -0.27348
 Alpha  occ. eigenvalues --   -0.25776  -0.20905
 Alpha virt. eigenvalues --   -0.03303  -0.00339   0.06833   0.09402   0.10179
 Alpha virt. eigenvalues --    0.11232   0.12533   0.13146   0.13187   0.13556
 Alpha virt. eigenvalues --    0.14711   0.17430   0.17647   0.18091   0.18653

 Mulliken charges:
               1
     1  C   -0.449704
     2  C   -0.259018
     3  C   -0.276147
     4  C   -0.032518
     5  O   -0.491939
     6  C    0.599424
     7  O   -0.566334
     8  C    0.038233
     9  C   -0.179057
    10  C   -0.202538
    11  C    0.325187
    12  N   -0.822775
    13  C   -0.201541
    14  C   -0.185784
    15  H    0.147430
    16  H    0.147429
    17  H    0.148076
    18  H    0.141596
    19  H    0.141556
    20  H    0.148244
    21  H    0.147936
    22  H    0.157720
    23  H    0.157924
    24  H    0.152129
    25  H    0.150251
    26  H    0.377170
    27  H    0.377113
    28  H    0.150091
    29  H    0.159847
 Sum of Mulliken charges =  -0.00000

 Dipole moment (field-independent basis, Debye):
    X=              3.3078    Y=             -4.1572    Z=             -1.1785  Tot=              5.4417
 Quadrupole moment (field-independent basis, Debye-Ang):
   XX=            -43.0641   YY=            -84.7232   ZZ=            -85.2016
   XY=             -6.2546   XZ=             -6.7969   YZ=              1.5579

 Normal termination of Gaussian 16 at Tue Mar  1 21:53:40 2022.
