 Gaussian 16, Revision A.03,

 ----------------------------------------------------------------------
 #p b3lyp/6-31G(d) opt=(MaxStep=10,MaxCycles=1000) freq scf=(MaxCycle=2
 000,NoVarAcc,NoIncFock) scrf=(iefpcm,read,solvent=water)
 ----------------------------------------------------------------------

 ------------
 86.n.pdb.xyz
 ------------
 Symbolic Z-matrix:
 Charge =  0 Multiplicity = 1

 SCF Done:  E(RB3LYP) =  -1150.13007304     A.U. after   12 cycles
 SCF Done:  E(RB3LYP) =  -1150.13376935     A.U. after   10 cycles
 SCF Done:  E(RB3LYP) =  -1150.13472431     A.U. after   10 cycles
 SCF Done:  E(RB3LYP) =  -1150.13495368     A.U. after    9 cycles
 SCF Done:  E(RB3LYP) =  -1150.13493515     A.U. after    9 cycles
 SCF Done:  E(RB3LYP) =  -1150.13498853     A.U. after    9 cycles
 SCF Done:  E(RB3LYP) =  -1150.13498627     A.U. after    8 cycles
 SCF Done:  E(RB3LYP) =  -1150.13499002     A.U. after    7 cycles
 Optimization completed.
    -- Stationary point found.
 Normal termination of Gaussian 16 at Wed Mar  2 00:07:07 2022.

 --------------------------------------------------------------------
 #P Geom=AllCheck Guess=TCheck SCRF=Check GenChk RB3LYP/6-31G(d) Freq
 --------------------------------------------------------------------

 Structure from the checkpoint file:  "86.n.pdb.xyz.mst.wat.chk"
 ------------
 86.n.pdb.xyz
 ------------
 Charge =  0 Multiplicity = 1

 SCF Done:  E(RB3LYP) =  -1150.13499002     A.U. after    1 cycles

  Exact polarizability:  58.915  -6.375  64.685   0.990   1.972  47.375
 Approx polarizability:  62.889  -9.422  76.019   1.574   2.179  58.375

                      1                      2                      3
                      A                      A                      A
 Frequencies --     36.4471                42.7990                61.8683
 Red. masses --     11.7967                13.3854                18.4150
 Frc consts  --      0.0092                 0.0144                 0.0415
 IR Inten    --      2.0152                 3.5426                 0.1841

                      4                      5                      6
                      A                      A                      A
 Frequencies --    145.6699               170.8936               245.0507
 Red. masses --     14.7204                19.0561                15.1751
 Frc consts  --      0.1840                 0.3279                 0.5369
 IR Inten    --      2.4372                 5.1640                 0.6556

                      7                      8                      9
                      A                      A                      A
 Frequencies --    324.2566               330.6343               371.0002
 Red. masses --     14.7807                16.1687                14.0978
 Frc consts  --      0.9156                 1.0414                 1.1433
 IR Inten    --      7.0111                 0.4266                 2.3022

                     10                     11                     12
                      A                      A                      A
 Frequencies --    497.5094               511.6944               542.8713
 Red. masses --     13.4229                13.9766                13.1747
 Frc consts  --      1.9575                 2.1561                 2.2876
 IR Inten    --      5.7286                34.1782                12.1635

                     13                     14                     15
                      A                      A                      A
 Frequencies --    576.0746               674.3337               711.5381
 Red. masses --     10.7594                10.8267                11.3013
 Frc consts  --      2.1038                 2.9006                 3.3711
 IR Inten    --      2.3535                68.5755                51.3544

                     16                     17                     18
                      A                      A                      A
 Frequencies --    774.6787               886.9789              1073.1994
 Red. masses --      6.7943                 6.2856                 8.0048
 Frc consts  --      2.4024                 2.9135                 5.4320
 IR Inten    --    186.0599                25.9618               121.5440

                     19                     20                     21
                      A                      A                      A
 Frequencies --   1088.9416              1143.9466              1169.4471
 Red. masses --      7.4334                 5.4524                 4.0828
 Frc consts  --      5.1934                 4.2039                 3.2898
 IR Inten    --    556.0941               391.1353               435.3461

                     22                     23                     24
                      A                      A                      A
 Frequencies --   1185.6476              1220.3171              1286.1814
 Red. masses --      5.0517                10.8961                 3.1183
 Frc consts  --      4.1841                 9.5602                 3.0393
 IR Inten    --    203.3012               373.1576               164.9897

                     25                     26                     27
                      A                      A                      A
 Frequencies --   1315.9202              1379.4059              1422.4077
 Red. masses --      1.3853                 1.3750                 1.2362
 Frc consts  --      1.4133                 1.5415                 1.4736
 IR Inten    --     24.9356                54.0098                52.2848

                     28                     29                     30
                      A                      A                      A
 Frequencies --   1438.9338              3166.2649              3191.7354
 Red. masses --      1.6825                 1.0885                 1.0875
 Frc consts  --      2.0525                 6.4293                 6.5272
 IR Inten    --     51.8829                37.7796                 4.4777

 - Thermochemistry -
 -------------------
 Temperature   298.150 Kelvin.  Pressure   1.00000 Atm.
 Atom     1 has atomic number  9 and mass  18.99840

 Molecular mass:   183.97143 amu.
 Principal axes and moments of inertia in atomic units:
                           1         2         3
     Eigenvalues --  1155.922842379.182212870.15728
           X            0.99997   0.00746   0.00058
           Y           -0.00746   0.99997  -0.00338
           Z           -0.00060   0.00337   0.99999
 This molecule is an asymmetric top.
 Rotational symmetry number  1.
 Warning -- assumption of classical behavior for rotation
           may cause significant error
 Rotational temperatures (Kelvin)      0.07493     0.03640     0.03018
 Rotational constants (GHZ):           1.56130     0.75856     0.62880
 Zero-point vibrational energy     161416.0 (Joules/Mol)
                                   38.57935 (Kcal/Mol)
 Warning -- explicit consideration of  13 degrees of freedom as
           vibrations may cause significant error
 Vibrational temperatures:     52.44    61.58    89.01   209.59   245.88
          (Kelvin)            352.57   466.53   475.71   533.79   715.80
                              736.21   781.07   828.84   970.22  1023.74
                             1114.59  1276.16  1544.09  1566.74  1645.88
                             1682.57  1705.88  1755.76  1850.53  1893.32
                             1984.66  2046.53  2070.30  4555.55  4592.20

 Zero-point correction=                           0.061480 (Hartree/Particle)
 Thermal correction to Energy=                    0.071055
 Thermal correction to Enthalpy=                  0.071999
 Thermal correction to Gibbs Free Energy=         0.023887
 Sum of electronic and zero-point Energies=          -1150.073510
 Sum of electronic and thermal Energies=             -1150.063935
 Sum of electronic and thermal Enthalpies=           -1150.062991
 Sum of electronic and thermal Free Energies=        -1150.111103

                     E (Thermal)             CV                S
                      KCal/Mol        Cal/Mol-Kelvin    Cal/Mol-Kelvin
 Total                   44.588             31.911            101.261
 Electronic               0.000              0.000              0.000
 Translational            0.889              2.981             41.535
 Rotational               0.889              2.981             30.446
 Vibrational             42.810             25.950             29.280
 Vibration     1          0.594              1.982              5.443
 Vibration     2          0.595              1.980              5.125
 Vibration     3          0.597              1.973              4.397
 Vibration     4          0.617              1.907              2.728
 Vibration     5          0.626              1.878              2.426
 Vibration     6          0.660              1.771              1.766
 Vibration     7          0.709              1.627              1.289
 Vibration     8          0.713              1.614              1.257
 Vibration     9          0.743              1.532              1.076
 Vibration    10          0.853              1.256              0.664
 Vibration    11          0.867              1.224              0.630
 Vibration    12          0.898              1.155              0.559
 Vibration    13          0.932              1.083              0.493

                           ! Non-Optimized Parameters !
 Normal termination of Gaussian 16 at Wed Mar  2 00:10:27 2022.

 ------------------------------------------
 #p b3lyp/6-31G(d) geom=allcheck guess=read
 ------------------------------------------

 Structure from the checkpoint file:  "86.n.pdb.xyz.mst.wat.chk"
 ------------
 86.n.pdb.xyz
 ------------
 Charge =  0 Multiplicity = 1

 SCF Done:  E(RB3LYP) =  -1150.13688533     A.U. after   10 cycles
 Normal termination of Gaussian 16 at Wed Mar  2 00:10:48 2022.
 Gaussian 16:  ES64L-G16RevA.03 25-Dec-2016

 ----------------------------------------------------------------------
 #p b3lyp/6-31G(d) scrf=(iefpcm,read,solvent=water) geom=allcheck guess
 =read
 ----------------------------------------------------------------------

 Structure from the checkpoint file:  "86.n.pdb.xyz.mst.wat.chk"
 ------------
 86.n.pdb.xyz
 ------------
 Charge =  0 Multiplicity = 1

                         Standard orientation:
 ---------------------------------------------------------------------
 Center     Atomic      Atomic             Coordinates (Angstroms)
 Number     Number       Type             X           Y           Z
 ---------------------------------------------------------------------
      1          9           0        2.951396   -0.464268    0.865899
      2          6           0        2.110581    0.135116    0.011377
      3          9           0        2.294213   -0.399415   -1.223068
      4          8           0        0.833457   -0.176195    0.468548
      5          6           0       -0.215053    0.257586   -0.326376
      6         17           0       -0.645588    1.994774    0.014865
      7          6           0       -1.417265   -0.632304    0.000702
      8          9           0       -1.737620   -0.570790    1.300242
      9          9           0       -2.485479   -0.267124   -0.721442
     10          9           0       -1.119707   -1.906055   -0.299076
     11          1           0        2.300914    1.207836   -0.029944
     12          1           0        0.011616    0.197039   -1.388353
 ---------------------------------------------------------------------

 SCF Done:  E(RB3LYP) =  -1150.13419040     A.U. after   10 cycles

 The electronic state is 1-A.
 Alpha  occ. eigenvalues -- -101.56073 -24.74634 -24.74527 -24.74511 -24.73238
 Alpha  occ. eigenvalues --  -24.72962 -19.22567 -10.45775 -10.41668 -10.34021
 Alpha  occ. eigenvalues --   -9.47790  -7.24184  -7.23208  -7.23169  -1.32721
 Alpha  occ. eigenvalues --   -1.28752  -1.23919  -1.23793  -1.22121  -1.11605
 Alpha  occ. eigenvalues --   -0.87907  -0.78286  -0.71435  -0.66676  -0.61861
 Alpha  occ. eigenvalues --   -0.60858  -0.60399  -0.58429  -0.57911  -0.55779
 Alpha  occ. eigenvalues --   -0.49262  -0.47808  -0.47204  -0.45615  -0.45141
 Alpha  occ. eigenvalues --   -0.43905  -0.43408  -0.43082  -0.41842  -0.41531
 Alpha  occ. eigenvalues --   -0.40765  -0.38223  -0.34819  -0.33045  -0.32562
 Alpha virt. eigenvalues --   -0.00854   0.08460   0.10477   0.12903   0.13618
 Alpha virt. eigenvalues --    0.16179   0.17847   0.19674   0.21388   0.22060
 Alpha virt. eigenvalues --    0.26517   0.36033   0.41176   0.42960   0.43416

 Mulliken charges:
               1
     1  F   -0.259685
     2  C    0.621683
     3  F   -0.273367
     4  O   -0.442589
     5  C   -0.116296
     6  Cl  -0.051736
     7  C    0.843737
     8  F   -0.250901
     9  F   -0.252572
    10  F   -0.255289
    11  H    0.179818
    12  H    0.257197
 Sum of Mulliken charges =  -0.00000

 Dipole moment (field-independent basis, Debye):
    X=              1.1315    Y=              1.1096    Z=             -1.6112  Tot=              2.2599
 Quadrupole moment (field-independent basis, Debye-Ang):
   XX=            -61.3064   YY=            -60.7907   ZZ=            -59.9219
   XY=              4.1160   XZ=             -0.0961   YZ=              0.0143

 Normal termination of Gaussian 16 at Wed Mar  2 00:11:14 2022.
