 Gaussian 16, Revision A.03,

 ----------------------------------------------------------------------
 #p b3lyp/6-31G(d) opt=(MaxStep=10,MaxCycles=1000) freq scf=(MaxCycle=2
 000,NoVarAcc,NoIncFock) scrf=(iefpcm,read,solvent=water)
 ----------------------------------------------------------------------

 ------------
 87.n.pdb.xyz
 ------------
 Symbolic Z-matrix:
 Charge =  0 Multiplicity = 1

 SCF Done:  E(RB3LYP) =  -703.034533267     A.U. after   13 cycles
 SCF Done:  E(RB3LYP) =  -703.036312925     A.U. after   10 cycles
 SCF Done:  E(RB3LYP) =  -703.036568767     A.U. after   10 cycles
 SCF Done:  E(RB3LYP) =  -703.036605291     A.U. after    9 cycles
 SCF Done:  E(RB3LYP) =  -703.036610194     A.U. after    8 cycles
 SCF Done:  E(RB3LYP) =  -703.036610465     A.U. after    7 cycles
 Optimization completed.
    -- Stationary point found.
 Normal termination of Gaussian 16 at Wed Mar  2 03:12:53 2022.

 --------------------------------------------------------------------
 #P Geom=AllCheck Guess=TCheck SCRF=Check GenChk RB3LYP/6-31G(d) Freq
 --------------------------------------------------------------------

 Structure from the checkpoint file:  "87.n.pdb.xyz.mst.wat.chk"
 ------------
 87.n.pdb.xyz
 ------------
 Charge =  0 Multiplicity = 1

 SCF Done:  E(RB3LYP) =  -703.036610465     A.U. after    1 cycles

  Exact polarizability: 129.164   2.929 116.731  -0.075   0.048  64.982
 Approx polarizability: 143.866  -2.847 146.766  -0.091   0.073  74.019

 ******    1 imaginary frequencies (negative Signs) ******

                      1                      2                      3
                      A                      A                      A
 Frequencies --    -42.3790                83.7202               143.0595
 Red. masses --      1.9935                 2.6661                 5.1170
 Frc consts  --      0.0021                 0.0110                 0.0617
 IR Inten    --      5.3053                 2.6679                 0.2860

                      4                      5                      6
                      A                      A                      A
 Frequencies --    241.3734               313.7216               317.4431
 Red. masses --      3.1602                 1.1511                 6.0135
 Frc consts  --      0.1085                 0.0668                 0.3570
 IR Inten    --      3.6143                89.0868                 7.1524

                      7                      8                      9
                      A                      A                      A
 Frequencies --    369.8320               499.7233               590.3674
 Red. masses --      3.6626                 4.0179                 8.5190
 Frc consts  --      0.2952                 0.5912                 1.7494
 IR Inten    --     11.1762                 6.0017                 2.6688

                     10                     11                     12
                      A                      A                      A
 Frequencies --    612.3321               733.5930               740.0233
 Red. masses --      3.6888                 1.2571                 7.7507
 Frc consts  --      0.8149                 0.3986                 2.5008
 IR Inten    --     17.0248                51.2971                 5.5213

                     13                     14                     15
                      A                      A                      A
 Frequencies --    769.6860               775.9009               880.3034
 Red. masses --      1.2044                 5.9204                 4.4879
 Frc consts  --      0.4204                 2.1000                 2.0491
 IR Inten    --      2.7927                16.2987                12.2496

                     16                     17                     18
                      A                      A                      A
 Frequencies --    900.0743               934.3248               986.5476
 Red. masses --      1.3160                 1.9294                 1.3229
 Frc consts  --      0.6281                 0.9924                 0.7586
 IR Inten    --      1.7534               274.5323                 1.4410

                     19                     20                     21
                      A                      A                      A
 Frequencies --   1039.2548              1081.6251              1088.9669
 Red. masses --      3.6817                 2.2452                 1.5759
 Frc consts  --      2.3428                 1.5476                 1.1011
 IR Inten    --     21.7061               107.1128                21.7395

                     22                     23                     24
                      A                      A                      A
 Frequencies --   1140.2490              1163.9568              1208.1028
 Red. masses --      2.8873                 1.1911                 2.1216
 Frc consts  --      2.2118                 0.9508                 1.8244
 IR Inten    --    150.1964                 0.0586                11.0734

                     25                     26                     27
                      A                      A                      A
 Frequencies --   1329.2353              1337.1276              1357.1468
 Red. masses --      1.1577                 1.4626                 1.6958
 Frc consts  --      1.2051                 1.5407                 1.8403
 IR Inten    --      0.0205                 7.7137                 2.4276

                     28                     29                     30
                      A                      A                      A
 Frequencies --   1399.8493              1416.2760              1491.1793
 Red. masses --      1.1954                 1.4756                 1.2407
 Frc consts  --      1.3802                 1.7438                 1.6255
 IR Inten    --      0.0604                14.8455                22.1756

                     31                     32                     33
                      A                      A                      A
 Frequencies --   1507.5483              1515.9549              1572.4401
 Red. masses --      1.8788                 1.5754                 5.3005
 Frc consts  --      2.5157                 2.1331                 7.7217
 IR Inten    --     25.8269                 0.6972                69.6988

                     34                     35                     36
                      A                      A                      A
 Frequencies --   1653.1063              3055.4664              3077.1259
 Red. masses --      1.0884                 1.0606                 1.0596
 Frc consts  --      1.7524                 5.8339                 5.9110
 IR Inten    --     50.0822                18.3197                66.7310

                     37                     38                     39
                      A                      A                      A
 Frequencies --   3085.2412              3120.9711              3249.2884
 Red. masses --      1.1004                 1.1071                 1.0915
 Frc consts  --      6.1712                 6.3538                 6.7894
 IR Inten    --      8.1039                74.4532                15.1785

                     40                     41                     42
                      A                      A                      A
 Frequencies --   3297.1737              3462.9438              3540.4571
 Red. masses --      1.0985                 1.0511                 1.0919
 Frc consts  --      7.0359                 7.4265                 8.0639
 IR Inten    --      2.5962                 0.4306                 2.2535

 - Thermochemistry -
 -------------------
 Temperature   298.150 Kelvin.  Pressure   1.00000 Atm.
 Atom     1 has atomic number  7 and mass  14.00307

 Molecular mass:   128.04082 amu.
 Principal axes and moments of inertia in atomic units:
                           1         2         3
     Eigenvalues --   390.628631942.374242301.44528
           X            0.99981   0.01971  -0.00004
           Y           -0.01971   0.99981  -0.00008
           Z            0.00004   0.00008   1.00000
 This molecule is an asymmetric top.
 Rotational symmetry number  1.
 Rotational temperatures (Kelvin)      0.22173     0.04459     0.03763
 Rotational constants (GHZ):           4.62009     0.92914     0.78418
    1 imaginary frequencies ignored.
 Zero-point vibrational energy     341430.4 (Joules/Mol)
                                   81.60383 (Kcal/Mol)
 Warning -- explicit consideration of   9 degrees of freedom as
           vibrations may cause significant error
 Vibrational temperatures:    120.45   205.83   347.28   451.38   456.73
          (Kelvin)            532.11   718.99   849.41   881.01  1055.48
                             1064.73  1107.41  1116.35  1266.56  1295.01
                             1344.28  1419.42  1495.26  1556.22  1566.78
                             1640.56  1674.67  1738.19  1912.47  1923.83
                             1952.63  2014.07  2037.71  2145.47  2169.03
                             2181.12  2262.39  2378.45  4396.13  4427.30
                             4438.97  4490.38  4675.00  4743.90  4982.40
                             5093.93

 Zero-point correction=                           0.130044 (Hartree/Particle)
 Thermal correction to Energy=                    0.137256
 Thermal correction to Enthalpy=                  0.138200
 Thermal correction to Gibbs Free Energy=         0.097781
 Sum of electronic and zero-point Energies=           -702.906566
 Sum of electronic and thermal Energies=              -702.899355
 Sum of electronic and thermal Enthalpies=            -702.898411
 Sum of electronic and thermal Free Energies=         -702.938830

                     E (Thermal)             CV                S
                      KCal/Mol        Cal/Mol-Kelvin    Cal/Mol-Kelvin
 Total                   86.129             27.043             85.069
 Electronic               0.000              0.000              0.000
 Translational            0.889              2.981             40.455
 Rotational               0.889              2.981             28.947
 Vibrational             84.352             21.082             15.667
 Vibration     1          0.601              1.960              3.802
 Vibration     2          0.616              1.910              2.763
 Vibration     3          0.658              1.777              1.793
 Vibration     4          0.702              1.647              1.343
 Vibration     5          0.704              1.640              1.323
 Vibration     6          0.742              1.534              1.080
 Vibration     7          0.855              1.251              0.659
 Vibration     8          0.948              1.052              0.467
 Vibration     9          0.972              1.006              0.429

                           ! Non-Optimized Parameters !
 Normal termination of Gaussian 16 at Wed Mar  2 03:17:06 2022.

 ------------------------------------------
 #p b3lyp/6-31G(d) geom=allcheck guess=read
 ------------------------------------------

 Structure from the checkpoint file:  "87.n.pdb.xyz.mst.wat.chk"
 ------------
 87.n.pdb.xyz
 ------------
 Charge =  0 Multiplicity = 1

 SCF Done:  E(RB3LYP) =  -703.022491295     A.U. after   12 cycles
 Normal termination of Gaussian 16 at Wed Mar  2 03:17:35 2022.
 Gaussian 16:  ES64L-G16RevA.03 25-Dec-2016

 ----------------------------------------------------------------------
 #p b3lyp/6-31G(d) scrf=(iefpcm,read,solvent=water) geom=allcheck guess
 =read
 ----------------------------------------------------------------------

 Structure from the checkpoint file:  "87.n.pdb.xyz.mst.wat.chk"
 ------------
 87.n.pdb.xyz
 ------------
 Charge =  0 Multiplicity = 1

                         Standard orientation:
 ---------------------------------------------------------------------
 Center     Atomic      Atomic             Coordinates (Angstroms)
 Number     Number       Type             X           Y           Z
 ---------------------------------------------------------------------
      1          7           0       -3.695799    0.016454   -0.000504
      2          6           0       -2.316123    0.511514   -0.003462
      3          6           0       -1.244158   -0.589910    0.002808
      4          6           0        0.162697   -0.061847    0.001044
      5          7           0        0.492038    1.200750    0.001721
      6          6           0        1.862990    1.369397    0.000564
      7          6           0        2.605685    0.228316   -0.001225
      8         16           0        1.552412   -1.150638   -0.000623
      9          1           0       -3.827277   -0.585611    0.813013
     10          1           0       -3.827362   -0.594867   -0.806742
     11          1           0       -2.179300    1.146086   -0.884010
     12          1           0       -2.179068    1.156043    0.869824
     13          1           0       -1.387961   -1.240452   -0.869360
     14          1           0       -1.388517   -1.228894    0.882153
     15          1           0        2.270747    2.372571    0.000801
     16          1           0        3.679929    0.120087   -0.002599
 ---------------------------------------------------------------------

 SCF Done:  E(RB3LYP) =  -703.036187241     A.U. after   11 cycles

 The electronic state is 1-A.
 Alpha  occ. eigenvalues --  -88.91244 -14.33819 -14.30791 -10.25820 -10.21893
 Alpha  occ. eigenvalues --  -10.21802 -10.20600 -10.19572  -7.97430  -5.93806
 Alpha  occ. eigenvalues --   -5.93460  -5.93151  -0.96294  -0.87576  -0.79647
 Alpha  occ. eigenvalues --   -0.77785  -0.70600  -0.62341  -0.58884  -0.53295
 Alpha  occ. eigenvalues --   -0.50020  -0.49443  -0.44076  -0.43711  -0.42370
 Alpha  occ. eigenvalues --   -0.39208  -0.39058  -0.37063  -0.36165  -0.34354
 Alpha  occ. eigenvalues --   -0.28528  -0.28145  -0.24192  -0.23895
 Alpha virt. eigenvalues --   -0.02400   0.02131   0.05214   0.08997   0.10023
 Alpha virt. eigenvalues --    0.12961   0.14232   0.14528   0.15657   0.17414
 Alpha virt. eigenvalues --    0.19964   0.20130   0.21176   0.22876   0.25370

 Mulliken charges:
               1
     1  N   -0.781867
     2  C   -0.132296
     3  C   -0.332581
     4  C    0.099830
     5  N   -0.459575
     6  C    0.036913
     7  C   -0.356456
     8  S    0.227736
     9  H    0.332196
    10  H    0.332388
    11  H    0.150653
    12  H    0.150793
    13  H    0.176890
    14  H    0.177301
    15  H    0.170912
    16  H    0.207163
 Sum of Mulliken charges =  -0.00000

 Dipole moment (field-independent basis, Debye):
    X=              1.4768    Y=             -2.9682    Z=              0.0102  Tot=              3.3153
 Quadrupole moment (field-independent basis, Debye-Ang):
   XX=            -52.7396   YY=            -55.2818   ZZ=            -54.3057
   XY=             10.0381   XZ=             -0.0504   YZ=              0.0060

 Normal termination of Gaussian 16 at Wed Mar  2 03:18:08 2022.
