 Gaussian 16, Revision A.03,

 ----------------------------------------------------------------------
 #p b3lyp/6-31G(d) opt=(MaxStep=10,MaxCycles=1000) freq scf=(MaxCycle=2
 000,NoVarAcc,NoIncFock) scrf=(iefpcm,read,solvent=water)
 ----------------------------------------------------------------------

 ------------
 88.n.pdb.xyz
 ------------
 Symbolic Z-matrix:
 Charge =  0 Multiplicity = 1

 SCF Done:  E(RB3LYP) =  -967.456171605     A.U. after   13 cycles
 SCF Done:  E(RB3LYP) =  -967.460049756     A.U. after   10 cycles
 SCF Done:  E(RB3LYP) =  -967.459620521     A.U. after   11 cycles
 SCF Done:  E(RB3LYP) =  -967.461976657     A.U. after   10 cycles
 SCF Done:  E(RB3LYP) =  -967.461709309     A.U. after   11 cycles
 SCF Done:  E(RB3LYP) =  -967.462296160     A.U. after   11 cycles
 SCF Done:  E(RB3LYP) =  -967.462493408     A.U. after    9 cycles
 SCF Done:  E(RB3LYP) =  -967.462525623     A.U. after   10 cycles
 SCF Done:  E(RB3LYP) =  -967.462553793     A.U. after    9 cycles
 SCF Done:  E(RB3LYP) =  -967.462558236     A.U. after    9 cycles
 SCF Done:  E(RB3LYP) =  -967.463958855     A.U. after    8 cycles
 SCF Done:  E(RB3LYP) =  -967.463966756     A.U. after    8 cycles
 SCF Done:  E(RB3LYP) =  -967.463958422     A.U. after    8 cycles
 SCF Done:  E(RB3LYP) =  -967.463957025     A.U. after    7 cycles
 SCF Done:  E(RB3LYP) =  -967.463966163     A.U. after    8 cycles
 SCF Done:  E(RB3LYP) =  -967.463966888     A.U. after    7 cycles
 SCF Done:  E(RB3LYP) =  -967.463958135     A.U. after    8 cycles
 Optimization completed.
    -- Stationary point found.
 Normal termination of Gaussian 16 at Wed Mar  2 10:30:12 2022.

 --------------------------------------------------------------------
 #P Geom=AllCheck Guess=TCheck SCRF=Check GenChk RB3LYP/6-31G(d) Freq
 --------------------------------------------------------------------

 Structure from the checkpoint file:  "88.n.pdb.xyz.mst.wat.chk"
 ------------
 88.n.pdb.xyz
 ------------
 Charge =  0 Multiplicity = 1

 SCF Done:  E(RB3LYP) =  -967.463958135     A.U. after    1 cycles

  Exact polarizability: 323.716 -25.052 294.972  -7.427   6.437 234.388
 Approx polarizability: 331.986 -31.611 311.721  -8.908   4.984 257.508

                      1                      2                      3
                      A                      A                      A
 Frequencies --     23.1095                34.1650                48.4356
 Red. masses --      5.2066                 4.5850                 3.5678
 Frc consts  --      0.0016                 0.0032                 0.0049
 IR Inten    --      0.9883                 1.5009                 3.3559

                      4                      5                      6
                      A                      A                      A
 Frequencies --     61.3842                96.2882               124.7253
 Red. masses --      3.5736                 4.2397                 2.6976
 Frc consts  --      0.0079                 0.0232                 0.0247
 IR Inten    --      2.7449                 0.7222                 1.9980

                      7                      8                      9
                      A                      A                      A
 Frequencies --    138.3147               153.7591               165.0054
 Red. masses --      3.2747                 3.2361                 2.7529
 Frc consts  --      0.0369                 0.0451                 0.0442
 IR Inten    --      2.6288                 0.3321                 0.8294

                     10                     11                     12
                      A                      A                      A
 Frequencies --    191.6205               213.7993               227.2961
 Red. masses --      2.3857                 1.7307                 1.6045
 Frc consts  --      0.0516                 0.0466                 0.0488
 IR Inten    --      0.8819                 0.2723                 0.3074

                     13                     14                     15
                      A                      A                      A
 Frequencies --    234.7357               240.2000               251.0758
 Red. masses --      1.7176                 2.7080                 1.9954
 Frc consts  --      0.0558                 0.0921                 0.0741
 IR Inten    --      0.1705                 1.5388                 1.1348

                     16                     17                     18
                      A                      A                      A
 Frequencies --    254.6234               281.0086               301.0557
 Red. masses --      2.6201                 2.2304                 2.1399
 Frc consts  --      0.1001                 0.1038                 0.1143
 IR Inten    --      1.9584                 4.7359                 3.5041

                     19                     20                     21
                      A                      A                      A
 Frequencies --    329.8327               344.4074               363.2362
 Red. masses --      1.9279                 1.6636                 2.8736
 Frc consts  --      0.1236                 0.1163                 0.2234
 IR Inten    --     75.7934               123.1620                 3.2821

                     22                     23                     24
                      A                      A                      A
 Frequencies --    377.0734               392.9402               401.5712
 Red. masses --      2.6460                 3.0463                 3.5872
 Frc consts  --      0.2217                 0.2771                 0.3408
 IR Inten    --     22.4850                 9.8729                 3.6594

                     25                     26                     27
                      A                      A                      A
 Frequencies --    409.1723               419.0687               430.8381
 Red. masses --      3.0708                 3.2284                 2.7769
 Frc consts  --      0.3029                 0.3341                 0.3037
 IR Inten    --      2.6968                 5.8726                 0.9177

                     28                     29                     30
                      A                      A                      A
 Frequencies --    444.0030               467.7636               477.5289
 Red. masses --      3.2757                 3.4654                 3.4802
 Frc consts  --      0.3805                 0.4467                 0.4676
 IR Inten    --      1.5107                10.4574                 7.4443

                     31                     32                     33
                      A                      A                      A
 Frequencies --    502.0274               508.8097               525.2627
 Red. masses --      3.0784                 3.3935                 2.8955
 Frc consts  --      0.4571                 0.5176                 0.4707
 IR Inten    --      2.7868                 5.2531                 2.8622

                     34                     35                     36
                      A                      A                      A
 Frequencies --    537.5112               571.1789               582.4789
 Red. masses --      3.3715                 3.9053                 5.2275
 Frc consts  --      0.5739                 0.7507                 1.0450
 IR Inten    --      7.1329                 7.1346                14.5537

                     37                     38                     39
                      A                      A                      A
 Frequencies --    610.4532               622.8411               629.4946
 Red. masses --      2.8681                 2.3097                 1.5216
 Frc consts  --      0.6297                 0.5279                 0.3552
 IR Inten    --      2.5181                20.4236                56.6919

                     40                     41                     42
                      A                      A                      A
 Frequencies --    653.4418               671.5294               684.0568
 Red. masses --      1.2514                 3.1246                 3.2631
 Frc consts  --      0.3148                 0.8302                 0.8996
 IR Inten    --     61.9964                 0.3109                 0.9256

                     43                     44                     45
                      A                      A                      A
 Frequencies --    702.0258               723.9363               791.1494
 Red. masses --      2.9214                 3.1065                 2.3581
 Frc consts  --      0.8483                 0.9592                 0.8696
 IR Inten    --      0.7821                 3.2005                 4.9965

                     46                     47                     48
                      A                      A                      A
 Frequencies --    828.4491               846.7359               863.6995
 Red. masses --      2.0178                 2.3692                 1.9974
 Frc consts  --      0.8160                 1.0008                 0.8779
 IR Inten    --      1.9562                17.2695                 4.9844

                     49                     50                     51
                      A                      A                      A
 Frequencies --    867.8012               872.7004               889.1800
 Red. masses --      2.3926                 1.9989                 2.1461
 Frc consts  --      1.0616                 0.8969                 0.9997
 IR Inten    --      2.4072                11.3911                 3.0561

                     52                     53                     54
                      A                      A                      A
 Frequencies --    908.9825               922.8441               938.3529
 Red. masses --      1.7327                 1.8496                 2.3266
 Frc consts  --      0.8435                 0.9281                 1.2070
 IR Inten    --      4.1457                 5.0990                 7.2733

                     55                     56                     57
                      A                      A                      A
 Frequencies --    961.0503               970.4785               987.0078
 Red. masses --      2.0297                 2.0718                 2.1219
 Frc consts  --      1.1045                 1.1496                 1.2179
 IR Inten    --      9.8440                26.0377                30.6339

                     58                     59                     60
                      A                      A                      A
 Frequencies --    993.7336              1001.5417              1006.2660
 Red. masses --      2.1749                 1.9308                 2.0400
 Frc consts  --      1.2654                 1.1411                 1.2170
 IR Inten    --      0.5649                10.0273                 0.4258

                     61                     62                     63
                      A                      A                      A
 Frequencies --   1025.7285              1037.3420              1052.4992
 Red. masses --      2.1003                 2.5618                 2.0443
 Frc consts  --      1.3020                 1.6242                 1.3343
 IR Inten    --     16.4858                31.5701                 7.9493

                     64                     65                     66
                      A                      A                      A
 Frequencies --   1055.5399              1067.7588              1080.8225
 Red. masses --      2.2929                 2.5326                 2.3400
 Frc consts  --      1.5051                 1.7012                 1.6106
 IR Inten    --      0.2210                 9.9273                 5.6539

                     67                     68                     69
                      A                      A                      A
 Frequencies --   1098.2048              1113.7061              1120.3379
 Red. masses --      1.7242                 3.5667                 2.4884
 Frc consts  --      1.2252                 2.6065                 1.8402
 IR Inten    --     31.2324                36.0505                 1.8628

                     70                     71                     72
                      A                      A                      A
 Frequencies --   1125.7859              1138.2463              1144.8478
 Red. masses --      2.2746                 1.8641                 1.9436
 Frc consts  --      1.6985                 1.4230                 1.5009
 IR Inten    --      9.2564                 4.9565                 4.7717

                     73                     74                     75
                      A                      A                      A
 Frequencies --   1155.8374              1170.3455              1176.2793
 Red. masses --      2.6721                 2.0410                 1.9452
 Frc consts  --      2.1032                 1.6471                 1.5858
 IR Inten    --     11.5800                 3.2543                 9.1884

                     76                     77                     78
                      A                      A                      A
 Frequencies --   1191.9335              1203.1051              1218.1854
 Red. masses --      1.6970                 1.5879                 1.6340
 Frc consts  --      1.4205                 1.3542                 1.4287
 IR Inten    --     33.0951                18.2373                37.8854

                     79                     80                     81
                      A                      A                      A
 Frequencies --   1225.7928              1233.7867              1235.7195
 Red. masses --      1.4482                 1.4953                 1.8739
 Frc consts  --      1.2821                 1.3411                 1.6859
 IR Inten    --     38.2418                13.2475                11.4247

                     82                     83                     84
                      A                      A                      A
 Frequencies --   1247.8020              1255.2131              1275.3741
 Red. masses --      1.7032                 1.5371                 1.6084
 Frc consts  --      1.5624                 1.4269                 1.5414
 IR Inten    --      7.4128                 0.1251                16.8295

                     85                     86                     87
                      A                      A                      A
 Frequencies --   1279.2229              1283.4780              1309.7002
 Red. masses --      1.5047                 1.6081                 1.3510
 Frc consts  --      1.4508                 1.5608                 1.3654
 IR Inten    --      6.9081                 4.2628                12.4874

                     88                     89                     90
                      A                      A                      A
 Frequencies --   1324.6936              1331.2823              1335.5548
 Red. masses --      1.3518                 1.3831                 1.3830
 Frc consts  --      1.3976                 1.4443                 1.4534
 IR Inten    --     10.4353                12.9404                 5.4753

                     91                     92                     93
                      A                      A                      A
 Frequencies --   1337.0310              1350.7351              1351.8403
 Red. masses --      1.3922                 1.3817                 1.4614
 Frc consts  --      1.4664                 1.4852                 1.5736
 IR Inten    --      3.7934                20.5740                14.5470

                     94                     95                     96
                      A                      A                      A
 Frequencies --   1357.3024              1365.1218              1375.0145
 Red. masses --      1.2994                 1.3475                 1.7779
 Frc consts  --      1.4105                 1.4796                 1.9805
 IR Inten    --      6.6216                 0.6241                 2.0405

                     97                     98                     99
                      A                      A                      A
 Frequencies --   1381.2661              1384.6776              1387.1539
 Red. masses --      1.4894                 1.4172                 1.5232
 Frc consts  --      1.6743                 1.6009                 1.7269
 IR Inten    --      0.3983                66.8951                 9.1681

                    100                    101                    102
                      A                      A                      A
 Frequencies --   1397.7063              1412.5189              1420.7360
 Red. masses --      1.4785                 1.5771                 1.2546
 Frc consts  --      1.7018                 1.8539                 1.4921
 IR Inten    --      3.4067                 5.5158                 4.3551

                    103                    104                    105
                      A                      A                      A
 Frequencies --   1424.4860              1426.3354              1451.9822
 Red. masses --      1.4720                 1.2875                 1.0841
 Frc consts  --      1.7598                 1.5433                 1.3467
 IR Inten    --     14.4193                 9.7561                 6.4604

                    106                    107                    108
                      A                      A                      A
 Frequencies --   1486.8336              1504.1273              1506.5833
 Red. masses --      1.0939                 1.0670                 1.0666
 Frc consts  --      1.4248                 1.4222                 1.4264
 IR Inten    --     10.1580                 3.1512                 2.8380

                    109                    110                    111
                      A                      A                      A
 Frequencies --   1507.8845              1508.4225              1510.7699
 Red. masses --      1.0746                 1.0847                 1.0842
 Frc consts  --      1.4396                 1.4541                 1.4580
 IR Inten    --      2.9024                 1.8491                 0.5730

                    112                    113                    114
                      A                      A                      A
 Frequencies --   1514.3960              1515.3427              1527.8544
 Red. masses --      1.0733                 1.0479                 1.0776
 Frc consts  --      1.4502                 1.4177                 1.4821
 IR Inten    --      3.5992                 8.0918                13.0335

                    115                    116                    117
                      A                      A                      A
 Frequencies --   1529.7616              1539.0900              1728.8279
 Red. masses --      1.0892                 1.0831                 8.0527
 Frc consts  --      1.5018                 1.5116                14.1805
 IR Inten    --      3.1463                 4.5938                 1.0635

                    118                    119                    120
                      A                      A                      A
 Frequencies --   1786.4615              2215.7851              2990.8221
 Red. masses --     11.1454                 5.9719                 1.0811
 Frc consts  --     20.9573                17.2751                 5.6975
 IR Inten    --    409.4294                 2.8531                93.0687

                    121                    122                    123
                      A                      A                      A
 Frequencies --   3001.5456              3004.7893              3028.8776
 Red. masses --      1.0726                 1.0712                 1.0725
 Frc consts  --      5.6935                 5.6981                 5.7971
 IR Inten    --     14.7428                35.9160                58.9588

                    124                    125                    126
                      A                      A                      A
 Frequencies --   3033.0344              3039.2551              3045.5051
 Red. masses --      1.0828                 1.0827                 1.0386
 Frc consts  --      5.8687                 5.8923                 5.6758
 IR Inten    --     18.4699                38.1053                46.8714

                    127                    128                    129
                      A                      A                      A
 Frequencies --   3051.8759              3055.5929              3058.3799
 Red. masses --      1.0658                 1.0832                 1.0698
 Frc consts  --      5.8489                 5.9584                 5.8959
 IR Inten    --     25.7493                78.0299                54.3661

                    130                    131                    132
                      A                      A                      A
 Frequencies --   3066.9141              3068.4523              3073.6861
 Red. masses --      1.0396                 1.0899                 1.0677
 Frc consts  --      5.7615                 6.0462                 5.9430
 IR Inten    --     37.6771                31.0277               149.0069

                    133                    134                    135
                      A                      A                      A
 Frequencies --   3081.2812              3086.4523              3097.3822
 Red. masses --      1.0593                 1.0910                 1.0909
 Frc consts  --      5.9255                 6.1233                 6.1665
 IR Inten    --     50.5808                59.2324                33.6031

                    136                    137                    138
                      A                      A                      A
 Frequencies --   3099.6265              3104.7036              3118.7999
 Red. masses --      1.0626                 1.1018                 1.1042
 Frc consts  --      6.0149                 6.2576                 6.3280
 IR Inten    --     53.7893                97.4479                50.8676

                    139                    140                    141
                      A                      A                      A
 Frequencies --   3119.6166              3129.2788              3133.1747
 Red. masses --      1.0928                 1.1006                 1.0970
 Frc consts  --      6.2659                 6.3499                 6.3450
 IR Inten    --     18.2881                53.4483                50.7178

                    142                    143                    144
                      A                      A                      A
 Frequencies --   3134.5835              3136.8608              3142.8855
 Red. masses --      1.0986                 1.0975                 1.0993
 Frc consts  --      6.3599                 6.3628                 6.3979
 IR Inten    --     82.4629                61.8888                56.6675

                    145                    146                    147
                      A                      A                      A
 Frequencies --   3149.4533              3487.1100              3716.0645
 Red. masses --      1.1006                 1.1597                 1.0666
 Frc consts  --      6.4321                 8.3088                 8.6779
 IR Inten    --     69.8197                99.8032                81.8198

 - Thermochemistry -
 -------------------
 Temperature   298.150 Kelvin.  Pressure   1.00000 Atm.
 Atom     1 has atomic number  6 and mass  12.00000

 Molecular mass:   312.20893 amu.
 Principal axes and moments of inertia in atomic units:
                           1         2         3
     Eigenvalues --  3385.79137********************
           X            0.99998  -0.00516   0.00349
           Y            0.00515   0.99998   0.00292
           Z           -0.00350  -0.00290   0.99999
 This molecule is an asymmetric top.
 Rotational symmetry number  1.
 Warning -- assumption of classical behavior for rotation
           may cause significant error
 Rotational temperatures (Kelvin)      0.02558     0.00764     0.00665
 Rotational constants (GHZ):           0.53303     0.15925     0.13865
 Zero-point vibrational energy    1178616.2 (Joules/Mol)
                                  281.69603 (Kcal/Mol)
 Warning -- explicit consideration of  37 degrees of freedom as
           vibrations may cause significant error
 Vibrational temperatures:     33.25    49.16    69.69    88.32   138.54
          (Kelvin)            179.45   199.00   221.23   237.41   275.70
                              307.61   327.03   337.73   345.59   361.24
                              366.35   404.31   433.15   474.56   495.53
                              522.62   542.52   565.35   577.77   588.71
                              602.95   619.88   638.82   673.01   687.06
                              722.31   732.06   755.74   773.36   821.80
                              838.06   878.31   896.13   905.70   940.16
                              966.18   984.21  1010.06  1041.58  1138.29
                             1191.95  1218.26  1242.67  1248.57  1255.62
                             1279.33  1307.82  1327.77  1350.08  1382.74
                             1396.30  1420.08  1429.76  1441.00  1447.79
                             1475.79  1492.50  1514.31  1518.69  1536.27
                             1555.06  1580.07  1602.37  1611.92  1619.75
                             1637.68  1647.18  1662.99  1683.87  1692.40
                             1714.93  1731.00  1752.70  1763.64  1775.14
                             1777.92  1795.31  1805.97  1834.98  1840.52
                             1846.64  1884.37  1905.94  1915.42  1921.57
                             1923.69  1943.41  1945.00  1952.86  1964.11
                             1978.34  1987.33  1992.24  1995.81  2010.99
                             2032.30  2044.12  2049.52  2052.18  2089.08
                             2139.22  2164.10  2167.64  2169.51  2170.28
                             2173.66  2178.88  2180.24  2198.24  2200.99
                             2214.41  2487.40  2570.32  3188.02  4303.13
                             4318.55  4323.22  4357.88  4363.86  4372.81
                             4381.80  4390.97  4396.32  4400.33  4412.61
                             4414.82  4422.35  4433.28  4440.72  4456.44
                             4459.67  4466.98  4487.26  4488.43  4502.33
                             4507.94  4509.97  4513.24  4521.91  4531.36
                             5017.17  5346.59

 Zero-point correction=                           0.448911 (Hartree/Particle)
 Thermal correction to Energy=                    0.470471
 Thermal correction to Enthalpy=                  0.471415
 Thermal correction to Gibbs Free Energy=         0.399509
 Sum of electronic and zero-point Energies=           -967.015047
 Sum of electronic and thermal Energies=              -966.993488
 Sum of electronic and thermal Enthalpies=            -966.992543
 Sum of electronic and thermal Free Energies=         -967.064449

                     E (Thermal)             CV                S
                      KCal/Mol        Cal/Mol-Kelvin    Cal/Mol-Kelvin
 Total                  295.225             88.117            151.338
 Electronic               0.000              0.000              0.000
 Translational            0.889              2.981             43.112
 Rotational               0.889              2.981             34.567
 Vibrational            293.447             82.156             73.659
 Vibration     1          0.593              1.985              6.347
 Vibration     2          0.594              1.983              5.572
 Vibration     3          0.595              1.978              4.880
 Vibration     4          0.597              1.973              4.412
 Vibration     5          0.603              1.952              3.528
 Vibration     6          0.610              1.928              3.026
 Vibration     7          0.614              1.915              2.827
 Vibration     8          0.619              1.898              2.625
 Vibration     9          0.623              1.885              2.492
 Vibration    10          0.634              1.851              2.212
 Vibration    11          0.644              1.820              2.011
 Vibration    12          0.651              1.799              1.900
 Vibration    13          0.655              1.788              1.842
 Vibration    14          0.657              1.779              1.801
 Vibration    15          0.663              1.761              1.723
 Vibration    16          0.665              1.755              1.698
 Vibration    17          0.681              1.709              1.528
 Vibration    18          0.693              1.672              1.411
 Vibration    19          0.713              1.616              1.261
 Vibration    20          0.723              1.587              1.192
 Vibration    21          0.737              1.548              1.108
 Vibration    22          0.748              1.519              1.051
 Vibration    23          0.760              1.485              0.989
 Vibration    24          0.767              1.467              0.957
 Vibration    25          0.774              1.450              0.930
 Vibration    26          0.782              1.429              0.895
 Vibration    27          0.792              1.403              0.856
 Vibration    28          0.804              1.374              0.814
 Vibration    29          0.825              1.322              0.744
 Vibration    30          0.834              1.300              0.717
 Vibration    31          0.857              1.246              0.653
 Vibration    32          0.864              1.230              0.636
 Vibration    33          0.880              1.194              0.598
 Vibration    34          0.893              1.167              0.571
 Vibration    35          0.927              1.094              0.502
 Vibration    36          0.939              1.069              0.481
 Vibration    37          0.970              1.010              0.432

 Optimization completed on the basis of negligible forces.
    -- Stationary point found.
 Normal termination of Gaussian 16 at Wed Mar  2 12:27:31 2022.

 ------------------------------------------
 #p b3lyp/6-31G(d) geom=allcheck guess=read
 ------------------------------------------

 Structure from the checkpoint file:  "88.n.pdb.xyz.mst.wat.chk"
 ------------
 88.n.pdb.xyz
 ------------
 Charge =  0 Multiplicity = 1

 SCF Done:  E(RB3LYP) =  -967.450419905     A.U. after   11 cycles
 Normal termination of Gaussian 16 at Wed Mar  2 12:33:49 2022.
 Gaussian 16:  ES64L-G16RevA.03 25-Dec-2016

 ----------------------------------------------------------------------
 #p b3lyp/6-31G(d) scrf=(iefpcm,read,solvent=water) geom=allcheck guess
 =read
 ----------------------------------------------------------------------

 Structure from the checkpoint file:  "88.n.pdb.xyz.mst.wat.chk"
 ------------
 88.n.pdb.xyz
 ------------
 Charge =  0 Multiplicity = 1

                         Standard orientation:
 ---------------------------------------------------------------------
 Center     Atomic      Atomic             Coordinates (Angstroms)
 Number     Number       Type             X           Y           Z
 ---------------------------------------------------------------------
      1          6           0       -0.207710    3.557093   -0.290367
      2          6           0       -0.750822    2.169864    0.073273
      3          6           0       -2.211949    2.044529   -0.406201
      4          6           0       -2.755564    0.663367   -0.161664
      5          6           0       -1.999642   -0.388821   -0.522072
      6          6           0       -2.472615   -1.809745   -0.308123
      7          6           0       -3.589572   -1.915268    0.748667
      8          6           0       -4.654507   -0.866748    0.547161
      9          8           0       -5.847704   -1.128703    0.494356
     10          6           0       -4.138275    0.552739    0.435913
     11          6           0       -0.687243   -0.066935   -1.243408
     12          6           0        0.185391   -1.291459   -1.634734
     13          6           0        1.686111   -1.038145   -1.451891
     14          6           0        2.011189   -0.717379    0.019079
     15          6           0        1.930447   -2.003056    0.860375
     16          6           0        1.023522    0.362840    0.611628
     17          6           0        1.911730    1.360355    1.409823
     18          6           0        3.284427    0.688246    1.538288
     19          6           0        3.424745   -0.058580    0.196889
     20          8           0        3.585587    0.893209   -0.868376
     21          6           0        4.550935   -1.006024    0.169541
     22          6           0        5.505178   -1.748691    0.135826
     23          6           0        0.144702    1.017209   -0.474323
     24          1           0       -0.170563    3.681881   -1.378858
     25          1           0       -0.849001    4.348895    0.115594
     26          1           0        0.803020    3.715108    0.095733
     27          1           0       -0.778190    2.088099    1.167205
     28          1           0       -2.827524    2.799592    0.094675
     29          1           0       -2.251860    2.279006   -1.482077
     30          1           0       -1.649487   -2.452781    0.015230
     31          1           0       -2.821268   -2.238405   -1.258585
     32          1           0       -3.147743   -1.737010    1.738399
     33          1           0       -4.047879   -2.906664    0.754866
     34          1           0       -4.150521    0.986914    1.448636
     35          1           0       -4.864626    1.139513   -0.139515
     36          1           0       -0.980393    0.427287   -2.180984
     37          1           0       -0.085906   -2.163403   -1.036431
     38          1           0       -0.017425   -1.570190   -2.674080
     39          1           0        2.007943   -0.211170   -2.087714
     40          1           0        2.252404   -1.922125   -1.768535
     41          1           0        0.925062   -2.428327    0.801561
     42          1           0        2.140524   -1.811350    1.916711
     43          1           0        2.640165   -2.754599    0.503796
     44          1           0        0.350162   -0.147964    1.311870
     45          1           0        2.025730    2.291005    0.851508
     46          1           0        1.485974    1.615114    2.383259
     47          1           0        3.304592   -0.030251    2.362989
     48          1           0        4.106691    1.392824    1.696592
     49          1           0        4.385791    1.412045   -0.673872
     50          1           0        6.343777   -2.407781    0.105294
     51          1           0        0.824622    1.456333   -1.213193
 ---------------------------------------------------------------------

 SCF Done:  E(RB3LYP) =  -967.462249377     A.U. after   11 cycles

 The electronic state is 1-A.
 Alpha  occ. eigenvalues --  -19.14827 -19.14086 -10.27649 -10.25819 -10.19367
 Alpha  occ. eigenvalues --  -10.19037 -10.18995 -10.18955 -10.18822 -10.18562
 Alpha  occ. eigenvalues --  -10.18428 -10.18195 -10.18115 -10.18097 -10.18013
 Alpha  occ. eigenvalues --  -10.17862 -10.17725 -10.17605 -10.17350 -10.17286
 Alpha  occ. eigenvalues --  -10.16951 -10.16897 -10.16783  -1.03828  -1.02331
 Alpha  occ. eigenvalues --   -0.86015  -0.83978  -0.80325  -0.78811  -0.76379
 Alpha  occ. eigenvalues --   -0.75372  -0.74657  -0.72330  -0.71162  -0.68026
 Alpha  occ. eigenvalues --   -0.67537  -0.66414  -0.62690  -0.61319  -0.58757
 Alpha  occ. eigenvalues --   -0.58078  -0.56763  -0.54587  -0.52916  -0.51164
 Alpha  occ. eigenvalues --   -0.50030  -0.49051  -0.48284  -0.47633  -0.46753
 Alpha  occ. eigenvalues --   -0.46287  -0.45273  -0.44496  -0.43641  -0.43370
 Alpha  occ. eigenvalues --   -0.42579  -0.41552  -0.40866  -0.40617  -0.39564
 Alpha  occ. eigenvalues --   -0.38955  -0.38663  -0.38339  -0.37496  -0.37261
 Alpha  occ. eigenvalues --   -0.36984  -0.36276  -0.35556  -0.35052  -0.34597
 Alpha  occ. eigenvalues --   -0.34399  -0.33988  -0.33242  -0.32742  -0.32141
 Alpha  occ. eigenvalues --   -0.31709  -0.31027  -0.29377  -0.28611  -0.28018
 Alpha  occ. eigenvalues --   -0.27792  -0.26989  -0.26213  -0.24509  -0.21994
 Alpha virt. eigenvalues --   -0.01776   0.02558   0.03756   0.04780   0.07648
 Alpha virt. eigenvalues --    0.08982   0.09547   0.10033   0.11366   0.11687
 Alpha virt. eigenvalues --    0.13255   0.13265   0.13482   0.13833   0.13903

 Mulliken charges:
               1
     1  C   -0.470068
     2  C   -0.076123
     3  C   -0.344077
     4  C    0.093399
     5  C    0.101826
     6  C   -0.357980
     7  C   -0.352393
     8  C    0.477392
     9  O   -0.522765
    10  C   -0.427012
    11  C   -0.163372
    12  C   -0.299984
    13  C   -0.281510
    14  C    0.091081
    15  C   -0.491360
    16  C   -0.110043
    17  C   -0.281405
    18  C   -0.301448
    19  C    0.153352
    20  O   -0.675343
    21  C    0.404891
    22  C   -0.623635
    23  C   -0.101139
    24  H    0.143758
    25  H    0.141663
    26  H    0.152737
    27  H    0.128991
    28  H    0.142167
    29  H    0.145306
    30  H    0.165526
    31  H    0.164132
    32  H    0.180333
    33  H    0.158647
    34  H    0.189473
    35  H    0.175001
    36  H    0.140188
    37  H    0.139791
    38  H    0.139822
    39  H    0.154098
    40  H    0.128876
    41  H    0.152650
    42  H    0.151579
    43  H    0.151075
    44  H    0.126028
    45  H    0.151500
    46  H    0.141589
    47  H    0.153383
    48  H    0.148728
    49  H    0.434963
    50  H    0.225836
    51  H    0.129880
 Sum of Mulliken charges =  -0.00000

 Dipole moment (field-independent basis, Debye):
    X=              4.7086    Y=              1.5601    Z=              1.4299  Tot=              5.1622
 Quadrupole moment (field-independent basis, Debye-Ang):
   XX=           -164.4425   YY=           -132.7740   ZZ=           -136.8735
   XY=             -6.2705   XZ=              4.3219   YZ=              1.2156

 Normal termination of Gaussian 16 at Wed Mar  2 12:41:07 2022.
