 Gaussian 16, Revision A.03,

 ----------------------------------------------------------------------
 #p b3lyp/6-31G(d) opt=(MaxStep=10,MaxCycles=1000) freq scf=(MaxCycle=2
 000,NoVarAcc,NoIncFock) scrf=(iefpcm,read,solvent=water)
 ----------------------------------------------------------------------

 ------------
 89.n.pdb.xyz
 ------------
 Symbolic Z-matrix:
 Charge =  0 Multiplicity = 1

 SCF Done:  E(RB3LYP) =  -1458.59909897     A.U. after   10 cycles
 SCF Done:  E(RB3LYP) =  -1458.60022228     A.U. after    9 cycles
 SCF Done:  E(RB3LYP) =  -1458.60028702     A.U. after    8 cycles
 SCF Done:  E(RB3LYP) =  -1458.60030456     A.U. after    8 cycles
 SCF Done:  E(RB3LYP) =  -1458.60029999     A.U. after    8 cycles
 Optimization completed.
    -- Stationary point found.
 Normal termination of Gaussian 16 at Wed Mar  2 04:59:42 2022.

 --------------------------------------------------------------------
 #P Geom=AllCheck Guess=TCheck SCRF=Check GenChk RB3LYP/6-31G(d) Freq
 --------------------------------------------------------------------

 Structure from the checkpoint file:  "89.n.pdb.xyz.mst.wat.chk"
 ------------
 89.n.pdb.xyz
 ------------
 Charge =  0 Multiplicity = 1

 SCF Done:  E(RB3LYP) =  -1458.60029999     A.U. after    1 cycles

  Exact polarizability:  69.431   0.000  69.443   0.027  -0.012  52.608
 Approx polarizability:  81.990   0.005  81.999   0.043  -0.006  58.255

                      1                      2                      3
                      A                      A                      A
 Frequencies --    237.7407               238.2319               269.1622
 Red. masses --      8.9067                 9.0723                 1.0227
 Frc consts  --      0.2966                 0.3034                 0.0437
 IR Inten    --      0.5775                 0.5661                 0.0005

                      4                      5                      6
                      A                      A                      A
 Frequencies --    336.0887               336.3849               343.4260
 Red. masses --      4.3154                 4.2830                13.0491
 Frc consts  --      0.2872                 0.2855                 0.9068
 IR Inten    --      2.3738                 2.4205                 3.4691

                      7                      8                      9
                      A                      A                      A
 Frequencies --    513.0206               664.7083               665.5429
 Red. masses --      7.6941                 5.0526                 5.0643
 Frc consts  --      1.1931                 1.3153                 1.3217
 IR Inten    --     23.3097               243.5367               244.2937

                     10                     11                     12
                      A                      A                      A
 Frequencies --   1080.2700              1089.3125              1091.5125
 Red. masses --      6.0318                 1.5369                 1.5271
 Frc consts  --      4.1473                 1.0745                 1.0720
 IR Inten    --     39.8215                98.7162                98.2585

                     13                     14                     15
                      A                      A                      A
 Frequencies --   1416.5391              1480.6440              1482.4406
 Red. masses --      1.2313                 1.0425                 1.0430
 Frc consts  --      1.4557                 1.3465                 1.3505
 IR Inten    --     11.9881                 6.4188                 6.5431

                     16                     17                     18
                      A                      A                      A
 Frequencies --   3099.2252              3184.6441              3193.0760
 Red. masses --      1.0333                 1.1055                 1.1052
 Frc consts  --      5.8480                 6.6061                 6.6389
 IR Inten    --      2.0766                 3.6233                 3.5578

 - Thermochemistry -
 -------------------
 Temperature   298.150 Kelvin.  Pressure   1.00000 Atm.
 Atom     1 has atomic number  6 and mass  12.00000

 Molecular mass:   131.93003 amu.
 Principal axes and moments of inertia in atomic units:
                           1         2         3
     Eigenvalues --   778.96747 779.026441086.06410
           X            0.99795   0.06405  -0.00037
           Y           -0.06405   0.99795   0.00000
           Z            0.00037   0.00002   1.00000
 This molecule is an asymmetric top.
 Rotational symmetry number  1.
 Warning -- assumption of classical behavior for rotation
           may cause significant error
 Rotational temperatures (Kelvin)      0.11119     0.11118     0.07975
 Rotational constants (GHZ):           2.31684     2.31666     1.66173
 Zero-point vibrational energy     123944.9 (Joules/Mol)
                                   29.62354 (Kcal/Mol)
 Warning -- explicit consideration of   7 degrees of freedom as
           vibrations may cause significant error
 Vibrational temperatures:    342.06   342.76   387.26   483.56   483.98
          (Kelvin)            494.11   738.12   956.37   957.57  1554.27
                             1567.28  1570.44  2038.08  2130.32  2132.90
                             4459.09  4581.99  4594.12

 Zero-point correction=                           0.047208 (Hartree/Particle)
 Thermal correction to Energy=                    0.053196
 Thermal correction to Enthalpy=                  0.054140
 Thermal correction to Gibbs Free Energy=         0.016613
 Sum of electronic and zero-point Energies=          -1458.553092
 Sum of electronic and thermal Energies=             -1458.547104
 Sum of electronic and thermal Enthalpies=           -1458.546160
 Sum of electronic and thermal Free Energies=        -1458.583687

                     E (Thermal)             CV                S
                      KCal/Mol        Cal/Mol-Kelvin    Cal/Mol-Kelvin
 Total                   33.381             20.201             78.983
 Electronic               0.000              0.000              0.000
 Translational            0.889              2.981             40.544
 Rotational               0.889              2.981             27.979
 Vibrational             31.604             14.240             10.460
 Vibration     1          0.656              1.783              1.820
 Vibration     2          0.656              1.782              1.816
 Vibration     3          0.674              1.730              1.602
 Vibration     4          0.717              1.603              1.231
 Vibration     5          0.717              1.603              1.229
 Vibration     6          0.722              1.589              1.196
 Vibration     7          0.868              1.221              0.626

                           ! Non-Optimized Parameters !
 Normal termination of Gaussian 16 at Wed Mar  2 05:00:40 2022.

 ------------------------------------------
 #p b3lyp/6-31G(d) geom=allcheck guess=read
 ------------------------------------------

 Structure from the checkpoint file:  "89.n.pdb.xyz.mst.wat.chk"
 ------------
 89.n.pdb.xyz
 ------------
 Charge =  0 Multiplicity = 1

 SCF Done:  E(RB3LYP) =  -1458.59894802     A.U. after    9 cycles

 1\1\GINC-PIRINEUS3\SP\RB3LYP\6-31G(d)\C2H3Cl3\UBATOR01\02-Mar-2022\0\\
 #p b3lyp/6-31G(d) geom=allcheck guess=read\\89.n.pdb.xyz\\0,1\C,0,-0.8
 546044163,-0.0136798167,-0.0540086477\C,0,0.6569464558,0.0113881722,0.
 041338351\Cl,0,1.2523745216,1.7128014448,0.1484210928\Cl,0,1.205271483
 1,-0.8853614816,1.5098174074\Cl,0,1.3887939593,-0.7654119176,-1.415427
 2925\H,0,-1.2830263129,0.4564285235,0.8324037824\H,0,-1.1931360063,-1.
 0475695691,-0.1173231568\H,0,-1.1726196844,0.5294046444,-0.9452215366\
 \Version=ES64L-G16RevA.03\State=1-A\HF=-1458.598948\RMSD=8.233e-09\Dip

 Normal termination of Gaussian 16 at Wed Mar  2 05:00:47 2022.
 Gaussian 16:  ES64L-G16RevA.03 25-Dec-2016

 ----------------------------------------------------------------------
 #p b3lyp/6-31G(d) scrf=(iefpcm,read,solvent=water) geom=allcheck guess
 =read
 ----------------------------------------------------------------------

 Structure from the checkpoint file:  "89.n.pdb.xyz.mst.wat.chk"
 ------------
 89.n.pdb.xyz
 ------------
 Charge =  0 Multiplicity = 1

                         Standard orientation:
 ---------------------------------------------------------------------
 Center     Atomic      Atomic             Coordinates (Angstroms)
 Number     Number       Type             X           Y           Z
 ---------------------------------------------------------------------
      1          6           0       -0.003828    0.000077    1.775856
      2          6           0        0.000190   -0.000045    0.261098
      3         17           0        1.636534   -0.439309   -0.363590
      4         17           0       -1.197566   -1.196894   -0.366741
      5         17           0       -0.436679    1.636156   -0.365939
      6          1           0        0.259508   -0.993859    2.140574
      7          1           0       -0.998556    0.266806    2.132105
      8          1           0        0.721969    0.727651    2.142175
 ---------------------------------------------------------------------

 SCF Done:  E(RB3LYP) =  -1458.60018728     A.U. after    9 cycles

 The electronic state is 1-A.
 Alpha  occ. eigenvalues -- -101.56805-101.56802-101.56800 -10.37916 -10.21102
 Alpha  occ. eigenvalues --   -9.48499  -9.48497  -9.48495  -7.24948  -7.24945
 Alpha  occ. eigenvalues --   -7.24943  -7.23877  -7.23874  -7.23873  -7.23864
 Alpha  occ. eigenvalues --   -7.23861  -7.23859  -0.94715  -0.84041  -0.84039
 Alpha  occ. eigenvalues --   -0.75548  -0.60320  -0.49435  -0.49425  -0.46680
 Alpha  occ. eigenvalues --   -0.40915  -0.40912  -0.35514  -0.35509  -0.33253
 Alpha  occ. eigenvalues --   -0.32214  -0.32213  -0.31062
 Alpha virt. eigenvalues --   -0.04595   0.00064   0.00076   0.11975   0.16294
 Alpha virt. eigenvalues --    0.16301   0.16448   0.30082   0.35062   0.35063
 Alpha virt. eigenvalues --    0.39816   0.39820   0.41728   0.44376   0.44611

 Mulliken charges:
               1
     1  C   -0.422807
     2  C   -0.264776
     3  Cl   0.019870
     4  Cl   0.019621
     5  Cl   0.019693
     6  H    0.209449
     7  H    0.209497
     8  H    0.209453
 Sum of Mulliken charges =  -0.00000

 Dipole moment (field-independent basis, Debye):
    X=             -0.0046    Y=              0.0002    Z=              2.4851  Tot=              2.4851
 Quadrupole moment (field-independent basis, Debye-Ang):
   XX=            -51.0314   YY=            -51.0310   ZZ=            -46.8794
   XY=             -0.0001   XZ=             -0.0063   YZ=             -0.0011

 1\1\GINC-PIRINEUS3\SP\RB3LYP\6-31G(d)\C2H3Cl3\UBATOR01\02-Mar-2022\0\\
 #p b3lyp/6-31G(d) scrf=(iefpcm,read,solvent=water) geom=allcheck guess
 =read\\89.n.pdb.xyz\\0,1\C,0,-0.8546044163,-0.0136798167,-0.0540086477
 \C,0,0.6569464558,0.0113881722,0.041338351\Cl,0,1.2523745216,1.7128014
 448,0.1484210928\Cl,0,1.2052714831,-0.8853614816,1.5098174074\Cl,0,1.3
 887939593,-0.7654119176,-1.4154272925\H,0,-1.2830263129,0.4564285235,0
 .8324037824\H,0,-1.1931360063,-1.0475695691,-0.1173231568\H,0,-1.17261
 96844,0.5294046444,-0.9452215366\\Version=ES64L-G16RevA.03\State=1-A\H

 Normal termination of Gaussian 16 at Wed Mar  2 05:00:58 2022.
