 Gaussian 16, Revision A.03,

 ----------------------------------------------------------------------
 #p b3lyp/6-31G(d) opt=(MaxStep=10,MaxCycles=1000) freq scf=(MaxCycle=2
 000,NoVarAcc,NoIncFock) scrf=(iefpcm,read,solvent=water)
 ----------------------------------------------------------------------

 -----------
 9.n.pdb.xyz
 -----------
 Symbolic Z-matrix:
 Charge =  0 Multiplicity = 1

 SCF Done:  E(RB3LYP) =  -1587.81872379     A.U. after   13 cycles
 SCF Done:  E(RB3LYP) =  -1587.82279808     A.U. after   10 cycles
 SCF Done:  E(RB3LYP) =  -1587.82551729     A.U. after   11 cycles
 SCF Done:  E(RB3LYP) =  -1587.82379272     A.U. after   11 cycles
 SCF Done:  E(RB3LYP) =  -1587.82674935     A.U. after   10 cycles
 SCF Done:  E(RB3LYP) =  -1587.82705969     A.U. after   10 cycles
 SCF Done:  E(RB3LYP) =  -1587.82710672     A.U. after    9 cycles
 SCF Done:  E(RB3LYP) =  -1587.82712047     A.U. after    9 cycles
 SCF Done:  E(RB3LYP) =  -1587.82709413     A.U. after    8 cycles
 SCF Done:  E(RB3LYP) =  -1587.82709723     A.U. after    8 cycles
 SCF Done:  E(RB3LYP) =  -1587.82709994     A.U. after    7 cycles
 SCF Done:  E(RB3LYP) =  -1587.82709956     A.U. after    6 cycles
 Optimization completed.
    -- Stationary point found.
 Normal termination of Gaussian 16 at Wed Mar  2 05:51:57 2022.

 --------------------------------------------------------------------
 #P Geom=AllCheck Guess=TCheck SCRF=Check GenChk RB3LYP/6-31G(d) Freq
 --------------------------------------------------------------------

 Structure from the checkpoint file:  "9.n.pdb.xyz.mst.wat.chk"
 -----------
 9.n.pdb.xyz
 -----------
 Charge =  0 Multiplicity = 1

 SCF Done:  E(RB3LYP) =  -1587.82709956     A.U. after    1 cycles

  Exact polarizability: 341.249  36.741 401.616  12.532   4.928 147.149
 Approx polarizability: 378.244  30.336 426.433  15.669   3.528 171.879

                      1                      2                      3
                      A                      A                      A
 Frequencies --     18.5539                33.0373                57.0597
 Red. masses --      4.0295                 6.7171                 5.3606
 Frc consts  --      0.0008                 0.0043                 0.0103
 IR Inten    --      0.2154                 0.0564                 0.4899

                      4                      5                      6
                      A                      A                      A
 Frequencies --     76.5373                88.5457               103.8935
 Red. masses --      2.0126                 4.6130                 2.6508
 Frc consts  --      0.0069                 0.0213                 0.0169
 IR Inten    --      6.3345                 0.2647                 2.5366

                      7                      8                      9
                      A                      A                      A
 Frequencies --    130.3768               138.8988               164.1824
 Red. masses --      4.0824                 3.6377                 6.9129
 Frc consts  --      0.0409                 0.0413                 0.1098
 IR Inten    --      0.4298                 0.3944                 0.3447

                     10                     11                     12
                      A                      A                      A
 Frequencies --    188.8738               209.7735               239.8757
 Red. masses --      5.7611                 3.9304                 2.2562
 Frc consts  --      0.1211                 0.1019                 0.0765
 IR Inten    --      0.9713                 0.8865                 2.3069

                     13                     14                     15
                      A                      A                      A
 Frequencies --    247.3009               284.6146               289.5638
 Red. masses --      1.4545                 6.7736                 7.2619
 Frc consts  --      0.0524                 0.3233                 0.3587
 IR Inten    --      0.9683                 3.9338                 0.5691

                     16                     17                     18
                      A                      A                      A
 Frequencies --    330.6202               336.3133               358.1619
 Red. masses --      4.7604                 5.0818                 4.8425
 Frc consts  --      0.3066                 0.3387                 0.3660
 IR Inten    --      4.7300                 3.3530                11.4558

                     19                     20                     21
                      A                      A                      A
 Frequencies --    385.3041               407.0201               435.9257
 Red. masses --      5.9408                 3.2994                 5.1018
 Frc consts  --      0.5196                 0.3220                 0.5712
 IR Inten    --      3.0571                 3.5357                 2.2222

                     22                     23                     24
                      A                      A                      A
 Frequencies --    449.5071               463.3630               485.6387
 Red. masses --      4.0621                 3.2615                 4.2212
 Frc consts  --      0.4836                 0.4126                 0.5866
 IR Inten    --      4.9112                 1.9516                15.8811

                     25                     26                     27
                      A                      A                      A
 Frequencies --    495.9133               546.0687               555.7988
 Red. masses --      4.7031                 5.2439                 5.3210
 Frc consts  --      0.6815                 0.9213                 0.9685
 IR Inten    --      4.3317                10.1904                 5.8770

                     28                     29                     30
                      A                      A                      A
 Frequencies --    591.9060               622.2523               655.1316
 Red. masses --      5.5741                 5.7887                 5.7705
 Frc consts  --      1.1506                 1.3206                 1.4592
 IR Inten    --      6.4293                 0.9734                 9.6329

                     31                     32                     33
                      A                      A                      A
 Frequencies --    689.6916               713.4701               727.8982
 Red. masses --      6.2347                 5.1369                 5.1911
 Frc consts  --      1.7473                 1.5406                 1.6205
 IR Inten    --      5.2261                 2.2965                 1.9179

                     34                     35                     36
                      A                      A                      A
 Frequencies --    737.8134               765.3023               770.4408
 Red. masses --      4.0273                 1.2871                 1.1128
 Frc consts  --      1.2917                 0.4442                 0.3892
 IR Inten    --      2.4838                86.4633                15.5606

                     37                     38                     39
                      A                      A                      A
 Frequencies --    799.8531               812.2131               833.4087
 Red. masses --      4.5291                 1.3352                 1.3279
 Frc consts  --      1.7072                 0.5190                 0.5434
 IR Inten    --     25.8316                29.5055               155.7460

                     40                     41                     42
                      A                      A                      A
 Frequencies --    861.6437               869.5282               874.8401
 Red. masses --      1.4147                 1.3471                 1.6396
 Frc consts  --      0.6188                 0.6001                 0.7393
 IR Inten    --     30.4001                 0.7126               119.4803

                     43                     44                     45
                      A                      A                      A
 Frequencies --    942.9777               946.6937               949.0637
 Red. masses --      1.4486                 1.3376                 2.2879
 Frc consts  --      0.7589                 0.7063                 1.2142
 IR Inten    --     13.7358                 4.9252                81.4598

                     46                     47                     48
                      A                      A                      A
 Frequencies --    976.9485               984.3358              1038.8663
 Red. masses --      2.1779                 1.2536                 2.8157
 Frc consts  --      1.2247                 0.7156                 1.7904
 IR Inten    --      2.3753                 0.1155                17.9419

                     49                     50                     51
                      A                      A                      A
 Frequencies --   1054.7815              1066.4474              1070.1792
 Red. masses --      2.8429                 4.9194                 5.9140
 Frc consts  --      1.8635                 3.2964                 3.9907
 IR Inten    --      4.2095                55.2759                14.8953

                     52                     53                     54
                      A                      A                      A
 Frequencies --   1082.5414              1108.7818              1123.2728
 Red. masses --      2.5298                 1.4990                 3.8189
 Frc consts  --      1.7467                 1.0858                 2.8390
 IR Inten    --     10.9322                 6.6830                18.6514

                     55                     56                     57
                      A                      A                      A
 Frequencies --   1135.7992              1144.8756              1156.0853
 Red. masses --      2.0327                 3.2697                 1.5296
 Frc consts  --      1.5450                 2.5251                 1.2045
 IR Inten    --    111.5302                29.6055                67.7290

                     58                     59                     60
                      A                      A                      A
 Frequencies --   1167.7828              1184.9187              1195.7350
 Red. masses --      1.3880                 1.7438                 1.6352
 Frc consts  --      1.1152                 1.4425                 1.3775
 IR Inten    --      4.8098                30.0144                67.9749

                     61                     62                     63
                      A                      A                      A
 Frequencies --   1203.3653              1256.2815              1273.8974
 Red. masses --      1.2151                 1.6704                 1.9646
 Frc consts  --      1.0367                 1.5533                 1.8784
 IR Inten    --      0.7159               114.7230               121.5878

                     64                     65                     66
                      A                      A                      A
 Frequencies --   1284.4776              1306.9314              1314.3771
 Red. masses --      1.8760                 1.2538                 1.4929
 Frc consts  --      1.8237                 1.2618                 1.5196
 IR Inten    --     52.7060                17.0152                20.3516

                     67                     68                     69
                      A                      A                      A
 Frequencies --   1324.9976              1335.6636              1342.7169
 Red. masses --      1.5283                 7.3907                 1.1475
 Frc consts  --      1.5808                 7.7684                 1.2189
 IR Inten    --      4.3122                70.3722                40.1875

                     70                     71                     72
                      A                      A                      A
 Frequencies --   1353.4053              1383.6902              1396.5180
 Red. masses --      8.9571                 1.7660                 1.3686
 Frc consts  --      9.6666                 1.9921                 1.5726
 IR Inten    --      7.4121               100.8721                22.3084

                     73                     74                     75
                      A                      A                      A
 Frequencies --   1427.1618              1444.6730              1472.1632
 Red. masses --      1.5195                 3.2282                 1.1801
 Frc consts  --      1.8235                 3.9696                 1.5068
 IR Inten    --     95.8570               207.1941                 2.4096

                     76                     77                     78
                      A                      A                      A
 Frequencies --   1486.6270              1500.8098              1507.2654
 Red. masses --      2.2698                 1.2186                 2.2477
 Frc consts  --      2.9556                 1.6171                 3.0087
 IR Inten    --     50.4637                27.2970               519.1389

                     79                     80                     81
                      A                      A                      A
 Frequencies --   1507.7309              1524.9612              1533.9688
 Red. masses --      1.0796                 1.3204                 1.0770
 Frc consts  --      1.4459                 1.8091                 1.4931
 IR Inten    --      4.0105                32.2328                15.3851

                     82                     83                     84
                      A                      A                      A
 Frequencies --   1537.8843              1541.6329              1552.3827
 Red. masses --      1.0896                 1.5665                 1.1637
 Frc consts  --      1.5184                 2.1936                 1.6524
 IR Inten    --      8.5284                 1.9702                 5.6758

                     85                     86                     87
                      A                      A                      A
 Frequencies --   1607.0882              1623.8274              1631.2301
 Red. masses --      6.1565                 6.3274                 5.9488
 Frc consts  --      9.3684                 9.8301                 9.3263
 IR Inten    --     64.6552               135.8078                 5.7303

                     88                     89                     90
                      A                      A                      A
 Frequencies --   1652.0622              2945.6015              2978.3815
 Red. masses --      6.3107                 1.0728                 1.0588
 Frc consts  --     10.1479                 5.4841                 5.5341
 IR Inten    --     69.3313               140.4586               151.1547

                     91                     92                     93
                      A                      A                      A
 Frequencies --   3056.1629              3084.9389              3085.8970
 Red. masses --      1.0864                 1.0730                 1.0630
 Frc consts  --      5.9784                 6.0164                 5.9643
 IR Inten    --     57.6969                56.5041                19.5464

                     94                     95                     96
                      A                      A                      A
 Frequencies --   3095.3089              3122.3783              3132.0071
 Red. masses --      1.0608                 1.1018                 1.1026
 Frc consts  --      5.9881                 6.3291                 6.3726
 IR Inten    --     91.0750                12.0525                57.6529

                     97                     98                     99
                      A                      A                      A
 Frequencies --   3140.7619              3208.2487              3215.9790
 Red. masses --      1.1056                 1.0868                 1.0903
 Frc consts  --      6.4258                 6.5910                 6.6436
 IR Inten    --     84.1730                 1.9832                21.2294

                    100                    101                    102
                      A                      A                      A
 Frequencies --   3219.3374              3231.0981              3249.3573
 Red. masses --      1.0899                 1.0965                 1.0942
 Frc consts  --      6.6550                 6.7444                 6.8065
 IR Inten    --      9.9379                46.5226                 4.6104

                    103                    104                    105
                      A                      A                      A
 Frequencies --   3268.0016              3285.1077              3481.4065
 Red. masses --      1.0901                 1.0896                 1.0741
 Frc consts  --      6.8593                 6.9283                 7.6702
 IR Inten    --     12.4906                 0.7866                 1.6869

 - Thermochemistry -
 -------------------
 Temperature   298.150 Kelvin.  Pressure   1.00000 Atm.
 Atom     1 has atomic number  6 and mass  12.00000

 Molecular mass:   304.08010 amu.
 Principal axes and moments of inertia in atomic units:
                           1         2         3
     Eigenvalues --  6774.565517506.10620**********
           X            0.95312  -0.30250   0.00711
           Y            0.30249   0.95315   0.00157
           Z           -0.00725   0.00066   0.99997
 This molecule is an asymmetric top.
 Rotational symmetry number  1.
 Warning -- assumption of classical behavior for rotation
           may cause significant error
 Rotational temperatures (Kelvin)      0.01279     0.01154     0.00626
 Rotational constants (GHZ):           0.26640     0.24044     0.13034
 Zero-point vibrational energy     791353.5 (Joules/Mol)
                                  189.13802 (Kcal/Mol)
 Warning -- explicit consideration of  28 degrees of freedom as
           vibrations may cause significant error
 Vibrational temperatures:     26.69    47.53    82.10   110.12   127.40
          (Kelvin)            149.48   187.58   199.84   236.22   271.75
                              301.82   345.13   355.81   409.50   416.62
                              475.69   483.88   515.32   554.37   585.61
                              627.20   646.74   666.68   698.73   713.51
                              785.67   799.67   851.62   895.28   942.59
                              992.31  1026.52  1047.28  1061.55  1101.10
                             1108.49  1150.81  1168.59  1199.09  1239.71
                             1251.06  1258.70  1356.73  1362.08  1365.49
                             1405.61  1416.24  1494.70  1517.60  1534.38
                             1539.75  1557.54  1595.29  1616.14  1634.16
                             1647.22  1663.35  1680.18  1704.83  1720.40
                             1731.37  1807.51  1832.85  1848.08  1880.38
                             1891.10  1906.38  1921.72  1931.87  1947.25
                             1990.82  2009.28  2053.37  2078.56  2118.11
                             2138.92  2159.33  2168.62  2169.29  2194.08
                             2207.04  2212.67  2218.07  2233.53  2312.24
                             2336.33  2346.98  2376.95  4238.06  4285.23
                             4397.14  4438.54  4439.92  4453.46  4492.41
                             4506.26  4518.86  4615.95  4627.08  4631.91
                             4648.83  4675.10  4701.93  4726.54  5008.97

 Zero-point correction=                           0.301411 (Hartree/Particle)
 Thermal correction to Energy=                    0.319595
 Thermal correction to Enthalpy=                  0.320539
 Thermal correction to Gibbs Free Energy=         0.253456
 Sum of electronic and zero-point Energies=          -1587.525689
 Sum of electronic and thermal Energies=             -1587.507505
 Sum of electronic and thermal Enthalpies=           -1587.506560
 Sum of electronic and thermal Free Energies=        -1587.573643

                     E (Thermal)             CV                S
                      KCal/Mol        Cal/Mol-Kelvin    Cal/Mol-Kelvin
 Total                  200.549             70.219            141.187
 Electronic               0.000              0.000              0.000
 Translational            0.889              2.981             43.033
 Rotational               0.889              2.981             34.909
 Vibrational            198.771             64.258             63.246
 Vibration     1          0.593              1.986              6.783
 Vibration     2          0.594              1.983              5.638
 Vibration     3          0.596              1.975              4.556
 Vibration     4          0.599              1.965              3.978
 Vibration     5          0.601              1.957              3.692
 Vibration     6          0.605              1.946              3.380
 Vibration     7          0.612              1.923              2.940
 Vibration     8          0.615              1.914              2.819
 Vibration     9          0.623              1.886              2.501
 Vibration    10          0.633              1.855              2.239
 Vibration    11          0.642              1.826              2.046
 Vibration    12          0.657              1.779              1.804
 Vibration    13          0.661              1.767              1.750
 Vibration    14          0.683              1.702              1.506
 Vibration    15          0.686              1.693              1.477
 Vibration    16          0.713              1.614              1.257
 Vibration    17          0.717              1.603              1.230
 Vibration    18          0.733              1.558              1.130
 Vibration    19          0.754              1.502              1.018
 Vibration    20          0.772              1.455              0.937
 Vibration    21          0.796              1.392              0.840
 Vibration    22          0.808              1.362              0.797
 Vibration    23          0.821              1.331              0.756
 Vibration    24          0.842              1.282              0.695
 Vibration    25          0.851              1.259              0.668
 Vibration    26          0.901              1.148              0.552
 Vibration    27          0.911              1.127              0.532
 Vibration    28          0.949              1.049              0.464

                           ! Non-Optimized Parameters !
 Normal termination of Gaussian 16 at Wed Mar  2 06:34:21 2022.

 ------------------------------------------
 #p b3lyp/6-31G(d) geom=allcheck guess=read
 ------------------------------------------

 Structure from the checkpoint file:  "9.n.pdb.xyz.mst.wat.chk"
 -----------
 9.n.pdb.xyz
 -----------
 Charge =  0 Multiplicity = 1

 SCF Done:  E(RB3LYP) =  -1587.81647283     A.U. after   11 cycles
 Normal termination of Gaussian 16 at Wed Mar  2 06:37:06 2022.
 Gaussian 16:  ES64L-G16RevA.03 25-Dec-2016

 ----------------------------------------------------------------------
 #p b3lyp/6-31G(d) scrf=(iefpcm,read,solvent=water) geom=allcheck guess
 =read
 ----------------------------------------------------------------------

 Structure from the checkpoint file:  "9.n.pdb.xyz.mst.wat.chk"
 -----------
 9.n.pdb.xyz
 -----------
 Charge =  0 Multiplicity = 1

                         Standard orientation:
 ---------------------------------------------------------------------
 Center     Atomic      Atomic             Coordinates (Angstroms)
 Number     Number       Type             X           Y           Z
 ---------------------------------------------------------------------
      1          6           0        5.686120   -2.223158   -0.064005
      2          7           0        4.391306   -1.811075   -0.602046
      3          6           0        3.415719   -1.555653    0.457762
      4          6           0        2.063377   -1.143400   -0.123121
      5          6           0        1.038314   -0.878799    0.989933
      6          7           0       -0.300314   -0.454711    0.559352
      7          6           0       -0.508092    0.903175    0.256604
      8          6           0        0.574604    1.789712    0.121539
      9          6           0        0.349436    3.135428   -0.157024
     10         17           0        1.745001    4.204118   -0.295640
     11          6           0       -0.924901    3.653045   -0.343771
     12          6           0       -2.001708    2.774285   -0.219735
     13          6           0       -1.808262    1.432659    0.101567
     14         16           0       -3.231752    0.432545    0.463235
     15          6           0       -2.591381   -1.161045   -0.000029
     16          6           0       -1.221276   -1.451179    0.160110
     17          6           0       -0.809911   -2.775092   -0.070686
     18          6           0       -1.721796   -3.761846   -0.447668
     19          6           0       -3.066224   -3.451917   -0.633727
     20          6           0       -3.491585   -2.141034   -0.416126
     21          1           0        6.361117   -2.476635   -0.886094
     22          1           0        5.631498   -3.090409    0.616363
     23          1           0        6.131426   -1.393546    0.495227
     24          1           0        4.034293   -2.568962   -1.184084
     25          1           0        3.807950   -0.746745    1.087722
     26          1           0        3.281907   -2.428358    1.123979
     27          1           0        2.194409   -0.255775   -0.747828
     28          1           0        1.694347   -1.933169   -0.783074
     29          1           0        0.906058   -1.781198    1.589429
     30          1           0        1.415314   -0.111826    1.671316
     31          1           0        1.590788    1.443406    0.228722
     32          1           0       -1.078951    4.699730   -0.572185
     33          1           0       -3.012982    3.144844   -0.347154
     34          1           0        0.230574   -3.043810    0.040987
     35          1           0       -1.364253   -4.773388   -0.607129
     36          1           0       -3.776593   -4.211714   -0.939533
     37          1           0       -4.535426   -1.873757   -0.543413
 ---------------------------------------------------------------------

 SCF Done:  E(RB3LYP) =  -1587.82626570     A.U. after   11 cycles

 The electronic state is 1-A.
 Alpha  occ. eigenvalues -- -101.55501 -88.89927 -14.38130 -14.31528 -10.25772
 Alpha  occ. eigenvalues --  -10.25449 -10.24688 -10.23187 -10.22809 -10.22688
 Alpha  occ. eigenvalues --  -10.20761 -10.20604 -10.20594 -10.20202 -10.19970
 Alpha  occ. eigenvalues --  -10.19610 -10.19573 -10.19489 -10.19114 -10.18595
 Alpha  occ. eigenvalues --   -9.47127  -7.96002  -7.23510  -7.22562  -7.22530
 Alpha  occ. eigenvalues --   -5.92503  -5.92142  -5.91504  -0.97762  -0.89743
 Alpha  occ. eigenvalues --   -0.89472  -0.86525  -0.85142  -0.80252  -0.78152
 Alpha  occ. eigenvalues --   -0.77251  -0.74817  -0.73855  -0.70165  -0.67821
 Alpha  occ. eigenvalues --   -0.64488  -0.63718  -0.61376  -0.60514  -0.59894
 Alpha  occ. eigenvalues --   -0.56590  -0.54757  -0.51726  -0.49332  -0.48783
 Alpha  occ. eigenvalues --   -0.48201  -0.47405  -0.46090  -0.45862  -0.45249
 Alpha  occ. eigenvalues --   -0.44006  -0.43269  -0.42989  -0.42490  -0.41566
 Alpha  occ. eigenvalues --   -0.40139  -0.39490  -0.38772  -0.38419  -0.37971
 Alpha  occ. eigenvalues --   -0.36880  -0.36054  -0.35580  -0.35283  -0.34938
 Alpha  occ. eigenvalues --   -0.33946  -0.32990  -0.32022  -0.31465  -0.29970
 Alpha  occ. eigenvalues --   -0.26561  -0.25777  -0.23288  -0.22538  -0.18986
 Alpha virt. eigenvalues --   -0.02789  -0.01870  -0.01039   0.01174   0.01958
 Alpha virt. eigenvalues --    0.03448   0.07133   0.08795   0.10562   0.11422
 Alpha virt. eigenvalues --    0.12280   0.12805   0.13338   0.13976   0.14546

 Mulliken charges:
               1
     1  C   -0.305955
     2  N   -0.595599
     3  C   -0.116725
     4  C   -0.294728
     5  C   -0.177667
     6  N   -0.602475
     7  C    0.340283
     8  C   -0.180232
     9  C   -0.092640
    10  Cl  -0.044675
    11  C   -0.135721
    12  C   -0.191114
    13  C   -0.127762
    14  S    0.145794
    15  C   -0.135478
    16  C    0.330239
    17  C   -0.187729
    18  C   -0.165130
    19  C   -0.139664
    20  C   -0.193060
    21  H    0.153975
    22  H    0.128420
    23  H    0.152514
    24  H    0.335931
    25  H    0.146821
    26  H    0.123727
    27  H    0.158210
    28  H    0.159618
    29  H    0.178420
    30  H    0.177464
    31  H    0.177203
    32  H    0.172106
    33  H    0.172585
    34  H    0.161616
    35  H    0.155854
    36  H    0.153143
    37  H    0.162433
 Sum of Mulliken charges =  -0.00000

 Dipole moment (field-independent basis, Debye):
    X=              0.9237    Y=             -4.2666    Z=              0.3748  Tot=              4.3815
 Quadrupole moment (field-independent basis, Debye-Ang):
   XX=           -128.2257   YY=           -120.5666   ZZ=           -135.8825
   XY=            -11.3185   XZ=              7.0086   YZ=              1.8335

 Normal termination of Gaussian 16 at Wed Mar  2 06:40:32 2022.
