 Gaussian 16, Revision A.03,

 ----------------------------------------------------------------------
 #p b3lyp/6-31G(d) opt=(MaxStep=10,MaxCycles=1000) freq scf=(MaxCycle=2
 000,NoVarAcc,NoIncFock) scrf=(iefpcm,read,solvent=water)
 ----------------------------------------------------------------------

 ------------
 90.n.pdb.xyz
 ------------
 Symbolic Z-matrix:
 Charge =  0 Multiplicity = 1

 SCF Done:  E(RB3LYP) =  -425.651284355     A.U. after   12 cycles
 SCF Done:  E(RB3LYP) =  -425.653243724     A.U. after    9 cycles
 SCF Done:  E(RB3LYP) =  -425.653392902     A.U. after    9 cycles
 SCF Done:  E(RB3LYP) =  -425.653410008     A.U. after    8 cycles
 SCF Done:  E(RB3LYP) =  -425.653417457     A.U. after    7 cycles
 SCF Done:  E(RB3LYP) =  -425.653416077     A.U. after    7 cycles
 Optimization completed.
    -- Stationary point found.
 Normal termination of Gaussian 16 at Tue Mar  1 05:20:00 2022.

 --------------------------------------------------------------------
 #P Geom=AllCheck Guess=TCheck SCRF=Check GenChk RB3LYP/6-31G(d) Freq
 --------------------------------------------------------------------

 Structure from the checkpoint file:  "90.n.pdb.xyz.mst.wat.chk"
 ------------
 90.n.pdb.xyz
 ------------
 Charge =  0 Multiplicity = 1

 SCF Done:  E(RB3LYP) =  -425.653416077     A.U. after    1 cycles

  Exact polarizability: 116.428  -0.344 101.047   0.007  -0.002  87.571
 Approx polarizability: 108.317  -3.862 114.612   0.008  -0.005  94.549

 ******    1 imaginary frequencies (negative Signs) ******

                      1                      2                      3
                      A                      A                      A
 Frequencies --    -25.2500                26.2706                61.9259
 Red. masses --      1.0476                 3.9349                 2.1651
 Frc consts  --      0.0004                 0.0016                 0.0049
 IR Inten    --      1.7467                 0.2759                 0.8713

                      4                      5                      6
                      A                      A                      A
 Frequencies --     77.3929               104.6928               137.9703
 Red. masses --      3.7900                 2.2503                 1.8764
 Frc consts  --      0.0134                 0.0145                 0.0210
 IR Inten    --      1.5791                 0.2302                 1.3887

                      7                      8                      9
                      A                      A                      A
 Frequencies --    195.5650               195.6519               250.6600
 Red. masses --      3.4642                 2.8146                 1.1206
 Frc consts  --      0.0781                 0.0635                 0.0415
 IR Inten    --      5.7831                 6.7327                 0.0083

                     10                     11                     12
                      A                      A                      A
 Frequencies --    256.6752               348.8045               441.9556
 Red. masses --      4.6522                 2.9326                 3.4876
 Frc consts  --      0.1806                 0.2102                 0.4014
 IR Inten    --      3.9576                 4.8867                14.5637

                     13                     14                     15
                      A                      A                      A
 Frequencies --    487.0428               603.7078               645.9879
 Red. masses --      3.0734                 2.6842                 4.6721
 Frc consts  --      0.4295                 0.5764                 1.1487
 IR Inten    --      0.1384                10.7362                 8.5225

                     16                     17                     18
                      A                      A                      A
 Frequencies --    747.8814               779.5031               863.9505
 Red. masses --      1.0650                 1.1062                 1.1726
 Frc consts  --      0.3510                 0.3960                 0.5157
 IR Inten    --      9.1562                 0.0589                 0.2040

                     19                     20                     21
                      A                      A                      A
 Frequencies --    899.3395               928.8036               983.5559
 Red. masses --      2.4076                 3.5694                 2.5914
 Frc consts  --      1.1473                 1.8142                 1.4770
 IR Inten    --      6.7403                19.1603                 7.9027

                     22                     23                     24
                      A                      A                      A
 Frequencies --    993.2568              1036.6875              1061.4597
 Red. masses --      1.1565                 3.2348                 2.5038
 Frc consts  --      0.6722                 2.0483                 1.6621
 IR Inten    --      1.4770                 1.3153               114.5983

                     25                     26                     27
                      A                      A                      A
 Frequencies --   1069.0114              1075.8768              1081.4895
 Red. masses --      1.7803                 2.1833                 2.6353
 Frc consts  --      1.1987                 1.4890                 1.8161
 IR Inten    --     16.0297                 7.0202                60.7697

                     28                     29                     30
                      A                      A                      A
 Frequencies --   1153.6897              1196.7933              1247.5330
 Red. masses --      2.6770                 1.6425                 1.3568
 Frc consts  --      2.0993                 1.3861                 1.2441
 IR Inten    --      2.9281                 2.4110                 2.0227

                     31                     32                     33
                      A                      A                      A
 Frequencies --   1276.5873              1287.4297              1305.8523
 Red. masses --      1.9877                 1.8335                 1.1839
 Frc consts  --      1.9085                 1.7905                 1.1894
 IR Inten    --    389.9485               222.0960                 0.2557

                     34                     35                     36
                      A                      A                      A
 Frequencies --   1328.5329              1347.1748              1361.6394
 Red. masses --      1.1167                 1.0730                 1.3795
 Frc consts  --      1.1613                 1.1474                 1.5070
 IR Inten    --      0.0560                 0.3446                 7.3566

                     37                     38                     39
                      A                      A                      A
 Frequencies --   1407.5519              1420.7991              1433.5580
 Red. masses --      1.3104                 1.5494                 1.4055
 Frc consts  --      1.5296                 1.8428                 1.7019
 IR Inten    --     58.5308                14.2013                10.7007

                     40                     41                     42
                      A                      A                      A
 Frequencies --   1437.2579              1481.8895              1486.3240
 Red. masses --      1.4955                 1.0553                 1.0448
 Frc consts  --      1.8201                 1.3654                 1.3599
 IR Inten    --      4.0766                24.1218                10.9959

                     43                     44                     45
                      A                      A                      A
 Frequencies --   1504.5060              1510.1329              1519.6641
 Red. masses --      1.0664                 1.0795                 1.0414
 Frc consts  --      1.4222                 1.4504                 1.4169
 IR Inten    --      0.3744                 0.4457                 7.0016

                     46                     47                     48
                      A                      A                      A
 Frequencies --   1522.0524              1533.0625              1541.3073
 Red. masses --      1.0787                 1.0888                 1.0974
 Frc consts  --      1.4724                 1.5077                 1.5360
 IR Inten    --      1.4503                 0.0305                 9.1229

                     49                     50                     51
                      A                      A                      A
 Frequencies --   1786.4859              3034.5463              3041.0608
 Red. masses --     10.7835                 1.0581                 1.0599
 Frc consts  --     20.2772                 5.7408                 5.7754
 IR Inten    --    438.6326                 8.7181                59.9271

                     52                     53                     54
                      A                      A                      A
 Frequencies --   3051.3339              3054.0386              3058.7756
 Red. masses --      1.0592                 1.0365                 1.1004
 Frc consts  --      5.8106                 5.6960                 6.0661
 IR Inten    --     94.0095                39.6708                 0.3802

                     55                     56                     57
                      A                      A                      A
 Frequencies --   3076.4966              3082.9445              3084.5671
 Red. masses --      1.1042                 1.0563                 1.0376
 Frc consts  --      6.1573                 5.9152                 5.8165
 IR Inten    --     29.5674                44.5898                 6.0623

                     58                     59                     60
                      A                      A                      A
 Frequencies --   3093.0323              3117.2976              3122.6430
 Red. masses --      1.1054                 1.1031                 1.1021
 Frc consts  --      6.2307                 6.3158                 6.3319
 IR Inten    --     85.2271               109.3324                70.7576

                     61                     62                     63
                      A                      A                      A
 Frequencies --   3132.6264              3148.9392              3194.3728
 Red. masses --      1.1099                 1.1012                 1.1037
 Frc consts  --      6.4175                 6.4333                 6.6355
 IR Inten    --     91.3907                 6.8959                14.5000

 - Thermochemistry -
 -------------------
 Temperature   298.150 Kelvin.  Pressure   1.00000 Atm.
 Atom     1 has atomic number  6 and mass  12.00000

 Molecular mass:   130.09938 amu.
 Principal axes and moments of inertia in atomic units:
                           1         2         3
     Eigenvalues --   277.958813869.302834080.17860
           X            0.99993   0.01204  -0.00000
           Y           -0.01204   0.99993   0.00004
           Z            0.00000  -0.00004   1.00000
 This molecule is an asymmetric top.
 Rotational symmetry number  1.
 Rotational temperatures (Kelvin)      0.31161     0.02238     0.02123
 Rotational constants (GHZ):           6.49284     0.46643     0.44232
    1 imaginary frequencies ignored.
 Zero-point vibrational energy     536750.1 (Joules/Mol)
                                  128.28636 (Kcal/Mol)
 Warning -- explicit consideration of  13 degrees of freedom as
           vibrations may cause significant error
 Vibrational temperatures:     37.80    89.10   111.35   150.63   198.51
          (Kelvin)            281.37   281.50   360.64   369.30   501.85
                              635.88   700.75   868.60   929.43  1076.03
                             1121.53  1243.03  1293.95  1336.34  1415.12
                             1429.08  1491.56  1527.20  1538.07  1547.95
                             1556.02  1659.90  1721.92  1794.92  1836.72
                             1852.32  1878.83  1911.46  1938.28  1959.10
                             2025.15  2044.21  2062.57  2067.89  2132.11
                             2138.49  2164.65  2172.74  2186.46  2189.89
                             2205.73  2217.60  2570.35  4366.04  4375.41
                             4390.19  4394.08  4400.90  4426.39  4435.67
                             4438.00  4450.18  4485.10  4492.79  4507.15
                             4530.62  4595.99

 Zero-point correction=                           0.204437 (Hartree/Particle)
 Thermal correction to Energy=                    0.215138
 Thermal correction to Enthalpy=                  0.216082
 Thermal correction to Gibbs Free Energy=         0.166590
 Sum of electronic and zero-point Energies=           -425.448979
 Sum of electronic and thermal Energies=              -425.438278
 Sum of electronic and thermal Enthalpies=            -425.437334
 Sum of electronic and thermal Free Energies=         -425.486826

                     E (Thermal)             CV                S
                      KCal/Mol        Cal/Mol-Kelvin    Cal/Mol-Kelvin
 Total                  135.001             36.876            104.166
 Electronic               0.000              0.000              0.000
 Translational            0.889              2.981             40.502
 Rotational               0.889              2.981             29.863
 Vibrational            133.224             30.914             33.800
 Vibration     1          0.593              1.985              6.093
 Vibration     2          0.597              1.972              4.395
 Vibration     3          0.599              1.964              3.956
 Vibration     4          0.605              1.945              3.365
 Vibration     5          0.614              1.915              2.832
 Vibration     6          0.636              1.846              2.174
 Vibration     7          0.636              1.846              2.174
 Vibration     8          0.663              1.762              1.726
 Vibration     9          0.666              1.752              1.684
 Vibration    10          0.726              1.578              1.172
 Vibration    11          0.802              1.379              0.820
 Vibration    12          0.843              1.279              0.691
 Vibration    13          0.962              1.024              0.443

 Optimization completed.
    -- Stationary point found.
 Normal termination of Gaussian 16 at Tue Mar  1 05:27:06 2022.

 ------------------------------------------
 #p b3lyp/6-31G(d) geom=allcheck guess=read
 ------------------------------------------

 Structure from the checkpoint file:  "90.n.pdb.xyz.mst.wat.chk"
 ------------
 90.n.pdb.xyz
 ------------
 Charge =  0 Multiplicity = 1

 SCF Done:  E(RB3LYP) =  -425.648296789     A.U. after   10 cycles
 Normal termination of Gaussian 16 at Tue Mar  1 05:27:45 2022.
 Gaussian 16:  ES64L-G16RevA.03 25-Dec-2016

 ----------------------------------------------------------------------
 #p b3lyp/6-31G(d) scrf=(iefpcm,read,solvent=water) geom=allcheck guess
 =read
 ----------------------------------------------------------------------

 Structure from the checkpoint file:  "90.n.pdb.xyz.mst.wat.chk"
 ------------
 90.n.pdb.xyz
 ------------
 Charge =  0 Multiplicity = 1

                         Standard orientation:
 ---------------------------------------------------------------------
 Center     Atomic      Atomic             Coordinates (Angstroms)
 Number     Number       Type             X           Y           Z
 ---------------------------------------------------------------------
      1          6           0        4.647351    0.248038   -0.000558
      2          6           0        3.349122   -0.560622   -0.000505
      3          6           0        2.095435    0.319789    0.000295
      4          6           0        0.795256   -0.490755    0.000830
      5          6           0       -0.433950    0.400084    0.000849
      6          8           0       -1.600685   -0.459820    0.000434
      7          6           0       -2.796631    0.154210   -0.000231
      8          6           0       -3.925011   -0.844001   -0.000571
      9          8           0       -2.926157    1.364987   -0.000433
     10          1           0        5.524621   -0.406564   -0.000943
     11          1           0        4.711591    0.892262   -0.884311
     12          1           0        4.711926    0.891781    0.883604
     13          1           0        3.327776   -1.219244    0.877011
     14          1           0        3.327261   -1.219361   -0.878451
     15          1           0        2.116975    0.978135    0.878934
     16          1           0        2.115881    0.978402   -0.878183
     17          1           0        0.763146   -1.143498    0.882031
     18          1           0        0.762761   -1.142454   -0.880272
     19          1           0       -0.472313    1.041640   -0.883610
     20          1           0       -0.472740    1.041387    0.885475
     21          1           0       -3.856123   -1.486800    0.881087
     22          1           0       -3.855676   -1.487044   -0.882213
     23          1           0       -4.879776   -0.320448   -0.000818
 ---------------------------------------------------------------------

 SCF Done:  E(RB3LYP) =  -425.653076849     A.U. after   10 cycles

 The electronic state is 1-A.
 Alpha  occ. eigenvalues --  -19.19123 -19.13886 -10.31985 -10.23779 -10.19019
 Alpha  occ. eigenvalues --  -10.18297 -10.17951 -10.17739 -10.16970  -1.10190
 Alpha  occ. eigenvalues --   -1.01376  -0.80683  -0.76906  -0.73645  -0.67894
 Alpha  occ. eigenvalues --   -0.60931  -0.58064  -0.56056  -0.49875  -0.48959
 Alpha  occ. eigenvalues --   -0.47105  -0.46534  -0.43677  -0.42092  -0.41388
 Alpha  occ. eigenvalues --   -0.39892  -0.39855  -0.37547  -0.36761  -0.34903
 Alpha  occ. eigenvalues --   -0.34134  -0.33200  -0.32241  -0.32212  -0.30250
 Alpha  occ. eigenvalues --   -0.27602
 Alpha virt. eigenvalues --    0.01069   0.09204   0.11020   0.11542   0.12424
 Alpha virt. eigenvalues --    0.13181   0.14014   0.15908   0.16768   0.17144
 Alpha virt. eigenvalues --    0.17736   0.18349   0.19876   0.20085   0.20333

 Mulliken charges:
               1
     1  C   -0.451498
     2  C   -0.248705
     3  C   -0.259349
     4  C   -0.284368
     5  C   -0.036998
     6  O   -0.462705
     7  C    0.623385
     8  C   -0.527039
     9  O   -0.531210
    10  H    0.145731
    11  H    0.145283
    12  H    0.145276
    13  H    0.136084
    14  H    0.135998
    15  H    0.138361
    16  H    0.138372
    17  H    0.149245
    18  H    0.149391
    19  H    0.161067
    20  H    0.161026
    21  H    0.195389
    22  H    0.195392
    23  H    0.181872
 Sum of Mulliken charges =  -0.00000

 Dipole moment (field-independent basis, Debye):
    X=              1.3686    Y=             -2.2726    Z=              0.0002  Tot=              2.6529
 Quadrupole moment (field-independent basis, Debye-Ang):
   XX=            -55.3839   YY=            -60.3704   ZZ=            -54.3225
   XY=              9.0486   XZ=              0.0005   YZ=              0.0024

 Normal termination of Gaussian 16 at Tue Mar  1 05:28:37 2022.
