 Gaussian 16, Revision A.03,

 ----------------------------------------------------------------------
 #p b3lyp/6-31G(d) opt=(MaxStep=10,MaxCycles=1000) freq scf=(MaxCycle=2
 000,NoVarAcc,NoIncFock) scrf=(iefpcm,read,solvent=water)
 ----------------------------------------------------------------------

 ------------
 91.n.pdb.xyz
 ------------
 Symbolic Z-matrix:
 Charge =  0 Multiplicity = 1

 SCF Done:  E(RB3LYP) =  -347.028714896     A.U. after   12 cycles
 SCF Done:  E(RB3LYP) =  -347.030541842     A.U. after   10 cycles
 SCF Done:  E(RB3LYP) =  -347.030723719     A.U. after   10 cycles
 SCF Done:  E(RB3LYP) =  -347.030442504     A.U. after   10 cycles
 SCF Done:  E(RB3LYP) =  -347.030855027     A.U. after    9 cycles
 SCF Done:  E(RB3LYP) =  -347.030858945     A.U. after    8 cycles
 SCF Done:  E(RB3LYP) =  -347.030858102     A.U. after    8 cycles
 SCF Done:  E(RB3LYP) =  -347.030857796     A.U. after    7 cycles
 SCF Done:  E(RB3LYP) =  -347.030858871     A.U. after    8 cycles
 SCF Done:  E(RB3LYP) =  -347.030856740     A.U. after    8 cycles
 SCF Done:  E(RB3LYP) =  -347.030857317     A.U. after    9 cycles
 SCF Done:  E(RB3LYP) =  -347.030857873     A.U. after    8 cycles
 SCF Done:  E(RB3LYP) =  -347.030858918     A.U. after    8 cycles
 SCF Done:  E(RB3LYP) =  -347.030857087     A.U. after    8 cycles
 SCF Done:  E(RB3LYP) =  -347.030857295     A.U. after    7 cycles
 SCF Done:  E(RB3LYP) =  -347.030858844     A.U. after    8 cycles
 SCF Done:  E(RB3LYP) =  -347.030857103     A.U. after    8 cycles
 Optimization completed on the basis of negligible forces.
    -- Stationary point found.
 Normal termination of Gaussian 16 at Tue Mar  1 07:32:41 2022.

 --------------------------------------------------------------------
 #P Geom=AllCheck Guess=TCheck SCRF=Check GenChk RB3LYP/6-31G(d) Freq
 --------------------------------------------------------------------

 Structure from the checkpoint file:  "91.n.pdb.xyz.mst.wat.chk"
 ------------
 91.n.pdb.xyz
 ------------
 Charge =  0 Multiplicity = 1

 SCF Done:  E(RB3LYP) =  -347.030857103     A.U. after    1 cycles

  Exact polarizability:  84.239  -0.724  71.331   0.102  -5.412  66.504
 Approx polarizability:  82.106  -2.784  79.780   1.800 -10.801  74.077

                      1                      2                      3
                      A                      A                      A
 Frequencies --     35.1669                63.4617               112.4763
 Red. masses --      1.0937                 4.2733                 2.7555
 Frc consts  --      0.0008                 0.0101                 0.0205
 IR Inten    --      2.5230                 1.6802                 3.7947

                      4                      5                      6
                      A                      A                      A
 Frequencies --    196.5580               227.3464               267.1448
 Red. masses --      2.5627                 1.0269                 1.2101
 Frc consts  --      0.0583                 0.0313                 0.0509
 IR Inten    --      9.6481                 0.1752                 2.0086

                      7                      8                      9
                      A                      A                      A
 Frequencies --    307.9844               404.1477               430.6924
 Red. masses --      2.4846                 3.2882                 2.8607
 Frc consts  --      0.1389                 0.3164                 0.3126
 IR Inten    --      2.2621                 5.8440                11.8285

                     10                     11                     12
                      A                      A                      A
 Frequencies --    474.7401               609.7043               632.9329
 Red. masses --      2.4398                 2.8612                 4.3471
 Frc consts  --      0.3240                 0.6267                 1.0260
 IR Inten    --      0.4819                11.7548                 7.8694

                     13                     14                     15
                      A                      A                      A
 Frequencies --    827.4388               901.9161               948.8859
 Red. masses --      2.7556                 2.9856                 1.1875
 Frc consts  --      1.1116                 1.4309                 0.6299
 IR Inten    --     13.8175                11.1183                 1.6035

                     16                     17                     18
                      A                      A                      A
 Frequencies --    963.5921               976.9271              1045.7026
 Red. masses --      1.4736                 3.5666                 1.8069
 Frc consts  --      0.8061                 2.0055                 1.1642
 IR Inten    --      4.9343                23.4581               109.3232

                     19                     20                     21
                      A                      A                      A
 Frequencies --   1072.9188              1141.5261              1172.4942
 Red. masses --      1.7683                 1.8440                 1.9849
 Frc consts  --      1.1993                 1.4158                 1.6077
 IR Inten    --     14.9275               177.0481                16.8956

                     22                     23                     24
                      A                      A                      A
 Frequencies --   1215.7387              1284.8982              1372.9097
 Red. masses --      1.9350                 3.2657                 1.4117
 Frc consts  --      1.6850                 3.1766                 1.5678
 IR Inten    --     23.9341               522.6473                 4.5215

                     25                     26                     27
                      A                      A                      A
 Frequencies --   1392.5308              1421.3813              1430.0378
 Red. masses --      1.2500                 1.3988                 1.3479
 Frc consts  --      1.4282                 1.6651                 1.6240
 IR Inten    --      6.3128                77.2861                19.5449

                     28                     29                     30
                      A                      A                      A
 Frequencies --   1442.9153              1486.5798              1492.8145
 Red. masses --      1.2604                 1.0550                 1.0457
 Frc consts  --      1.5462                 1.3737                 1.3729
 IR Inten    --      6.2928                24.9134                12.3142

                     31                     32                     33
                      A                      A                      A
 Frequencies --   1506.7740              1508.5379              1515.7965
 Red. masses --      1.0514                 1.0467                 1.0517
 Frc consts  --      1.4064                 1.4034                 1.4237
 IR Inten    --      1.6878                 0.5548                 6.1802

                     34                     35                     36
                      A                      A                      A
 Frequencies --   1529.2914              1780.9371              3070.2649
 Red. masses --      1.0517                10.6818                 1.0353
 Frc consts  --      1.4492                19.9615                 5.7501
 IR Inten    --     13.2154               437.6086                25.6976

                     37                     38                     39
                      A                      A                      A
 Frequencies --   3074.8138              3087.1287              3111.9283
 Red. masses --      1.0363                 1.0372                 1.0865
 Frc consts  --      5.7725                 5.8239                 6.1993
 IR Inten    --     20.4368                 2.5052                 4.7044

                     40                     41                     42
                      A                      A                      A
 Frequencies --   3140.1972              3147.6004              3149.3875
 Red. masses --      1.1033                 1.1017                 1.1028
 Frc consts  --      6.4099                 6.4308                 6.4449
 IR Inten    --      2.6068                81.3957                48.2211

                     43                     44                     45
                      A                      A                      A
 Frequencies --   3152.0708              3155.1413              3195.1079
 Red. masses --      1.1009                 1.1028                 1.1040
 Frc consts  --      6.4443                 6.4681                 6.6402
 IR Inten    --      7.5645                37.8888                15.1337

 - Thermochemistry -
 -------------------
 Temperature   298.150 Kelvin.  Pressure   1.00000 Atm.
 Atom     1 has atomic number  6 and mass  12.00000

 Molecular mass:   102.06808 amu.
 Principal axes and moments of inertia in atomic units:
                           1         2         3
     Eigenvalues --   383.917441089.855621235.61222
           X            0.99964   0.02301  -0.01406
           Y           -0.02197   0.99728   0.07033
           Z            0.01564  -0.07000   0.99742
 This molecule is an asymmetric top.
 Rotational symmetry number  1.
 Rotational temperatures (Kelvin)      0.22561     0.07947     0.07010
 Rotational constants (GHZ):           4.70086     1.65595     1.46060
 Zero-point vibrational energy     385667.3 (Joules/Mol)
                                   92.17670 (Kcal/Mol)
 Warning -- explicit consideration of  11 degrees of freedom as
           vibrations may cause significant error
 Vibrational temperatures:     50.60    91.31   161.83   282.80   327.10
          (Kelvin)            384.36   443.12   581.48   619.67   683.05
                              877.23   910.65  1190.50  1297.66  1365.24
                             1386.39  1405.58  1504.53  1543.69  1642.40
                             1686.96  1749.18  1848.68  1975.31  2003.54
                             2045.05  2057.51  2076.03  2138.86  2147.83
                             2167.91  2170.45  2180.89  2200.31  2562.37
                             4417.43  4423.97  4441.69  4477.37  4518.04
                             4528.69  4531.27  4535.13  4539.54  4597.05

 Zero-point correction=                           0.146893 (Hartree/Particle)
 Thermal correction to Energy=                    0.155639
 Thermal correction to Enthalpy=                  0.156583
 Thermal correction to Gibbs Free Energy=         0.112806
 Sum of electronic and zero-point Energies=           -346.883964
 Sum of electronic and thermal Energies=              -346.875218
 Sum of electronic and thermal Enthalpies=            -346.874274
 Sum of electronic and thermal Free Energies=         -346.918051

                     E (Thermal)             CV                S
                      KCal/Mol        Cal/Mol-Kelvin    Cal/Mol-Kelvin
 Total                   97.665             29.830             92.137
 Electronic               0.000              0.000              0.000
 Translational            0.889              2.981             39.779
 Rotational               0.889              2.981             27.738
 Vibrational             95.887             23.868             24.620
 Vibration     1          0.594              1.982              5.514
 Vibration     2          0.597              1.972              4.347
 Vibration     3          0.607              1.939              3.226
 Vibration     4          0.636              1.845              2.165
 Vibration     5          0.651              1.799              1.900
 Vibration     6          0.672              1.733              1.615
 Vibration     7          0.698              1.659              1.373
 Vibration     8          0.769              1.461              0.948
 Vibration     9          0.792              1.403              0.856
 Vibration    10          0.831              1.306              0.724
 Vibration    11          0.969              1.011              0.433

 Optimization completed.
    -- Stationary point found.
 Normal termination of Gaussian 16 at Tue Mar  1 07:36:21 2022.

 ------------------------------------------
 #p b3lyp/6-31G(d) geom=allcheck guess=read
 ------------------------------------------

 Structure from the checkpoint file:  "91.n.pdb.xyz.mst.wat.chk"
 ------------
 91.n.pdb.xyz
 ------------
 Charge =  0 Multiplicity = 1

 SCF Done:  E(RB3LYP) =  -347.025619150     A.U. after   11 cycles

 1\1\GINC-PIRINEUS6\SP\RB3LYP\6-31G(d)\C5H10O2\UBATOR01\01-Mar-2022\0\\
 #p b3lyp/6-31G(d) geom=allcheck guess=read\\91.n.pdb.xyz\\0,1\C,0,-1.8
 703540269,-0.776658612,-0.8181610736\C,0,-0.9316374511,-0.0317081052,0
 .11591768\C,0,-1.1986752205,1.4659574101,0.1817547506\O,0,0.4175358761
 ,-0.2551484298,-0.4044512293\C,0,1.4348274262,-0.2742517808,0.47480209
 23\C,0,2.7505309157,-0.5051515576,-0.2236137899\O,0,1.2994855612,-0.12
 08677164,1.6758949268\H,0,-1.8060873393,-0.3776368983,-1.8348172713\H,
 0,-1.6279430685,-1.8421611967,-0.8459223239\H,0,-2.9017181142,-0.66736

 Normal termination of Gaussian 16 at Tue Mar  1 07:36:47 2022.
 Gaussian 16:  ES64L-G16RevA.03 25-Dec-2016

 ----------------------------------------------------------------------
 #p b3lyp/6-31G(d) scrf=(iefpcm,read,solvent=water) geom=allcheck guess
 =read
 ----------------------------------------------------------------------

 Structure from the checkpoint file:  "91.n.pdb.xyz.mst.wat.chk"
 ------------
 91.n.pdb.xyz
 ------------
 Charge =  0 Multiplicity = 1

                         Standard orientation:
 ---------------------------------------------------------------------
 Center     Atomic      Atomic             Coordinates (Angstroms)
 Number     Number       Type             X           Y           Z
 ---------------------------------------------------------------------
      1          6           0        2.111706   -1.098598   -0.346182
      2          6           0        1.135197    0.061143   -0.245813
      3          6           0        1.590218    1.160976    0.703908
      4          8           0       -0.119294   -0.508390    0.246998
      5          6           0       -1.268005    0.076808   -0.135547
      6          6           0       -2.459620   -0.624385    0.464916
      7          8           0       -1.325947    1.047869   -0.869135
      8          1           0        2.282618   -1.550161    0.635561
      9          1           0        1.733527   -1.869004   -1.023149
     10          1           0        3.071222   -0.742823   -0.731535
     11          1           0        0.931228    0.480466   -1.233179
     12          1           0        0.849247    1.961843    0.755436
     13          1           0        1.747589    0.761294    1.710243
     14          1           0        2.533196    1.589417    0.352096
     15          1           0       -3.378587   -0.180686    0.084516
     16          1           0       -2.432678   -1.690329    0.225155
     17          1           0       -2.432399   -0.531519    1.554259
 ---------------------------------------------------------------------

 SCF Done:  E(RB3LYP) =  -347.030550948     A.U. after   10 cycles

 The electronic state is 1-A.
 Alpha  occ. eigenvalues --  -19.18802 -19.13807 -10.31996 -10.24506 -10.18962
 Alpha  occ. eigenvalues --  -10.17743 -10.17674  -1.09862  -1.01280  -0.79887
 Alpha  occ. eigenvalues --   -0.73885  -0.69306  -0.62129  -0.55291  -0.49426
 Alpha  occ. eigenvalues --   -0.47455  -0.46976  -0.44133  -0.41919  -0.41375
 Alpha  occ. eigenvalues --   -0.39584  -0.39052  -0.37670  -0.36150  -0.35413
 Alpha  occ. eigenvalues --   -0.33275  -0.29898  -0.27520
 Alpha virt. eigenvalues --    0.01127   0.09872   0.11471   0.12903   0.14420
 Alpha virt. eigenvalues --    0.15571   0.16251   0.17679   0.18133   0.19187
 Alpha virt. eigenvalues --    0.19552   0.19605   0.21910   0.24261   0.26177

 Mulliken charges:
               1
     1  C   -0.460109
     2  C    0.126527
     3  C   -0.460048
     4  O   -0.465943
     5  C    0.622617
     6  C   -0.526899
     7  O   -0.530236
     8  H    0.158017
     9  H    0.161052
    10  H    0.162601
    11  H    0.160709
    12  H    0.162584
    13  H    0.157358
    14  H    0.161643
    15  H    0.181008
    16  H    0.192885
    17  H    0.196234
 Sum of Mulliken charges =  -0.00000

 Dipole moment (field-independent basis, Debye):
    X=              1.1970    Y=             -1.7413    Z=              1.3459  Tot=              2.5052
 Quadrupole moment (field-independent basis, Debye-Ang):
   XX=            -37.6907   YY=            -44.9332   ZZ=            -43.4973
   XY=              4.1455   XZ=             -3.5796   YZ=              2.7120

 1\1\GINC-PIRINEUS6\SP\RB3LYP\6-31G(d)\C5H10O2\UBATOR01\01-Mar-2022\0\\
 #p b3lyp/6-31G(d) scrf=(iefpcm,read,solvent=water) geom=allcheck guess
 =read\\91.n.pdb.xyz\\0,1\C,0,-1.8703540269,-0.776658612,-0.8181610736\
 C,0,-0.9316374511,-0.0317081052,0.11591768\C,0,-1.1986752205,1.4659574
 101,0.1817547506\O,0,0.4175358761,-0.2551484298,-0.4044512293\C,0,1.43
 48274262,-0.2742517808,0.4748020923\C,0,2.7505309157,-0.5051515576,-0.
 2236137899\O,0,1.2994855612,-0.1208677164,1.6758949268\H,0,-1.80608733
 93,-0.3776368983,-1.8348172713\H,0,-1.6279430685,-1.8421611967,-0.8459

 Normal termination of Gaussian 16 at Tue Mar  1 07:37:17 2022.
