 Gaussian 16, Revision A.03,

 ----------------------------------------------------------------------
 #p b3lyp/6-31G(d) opt=(MaxStep=10,MaxCycles=1000) freq scf=(MaxCycle=2
 000,NoVarAcc,NoIncFock) scrf=(iefpcm,read,solvent=water)
 ----------------------------------------------------------------------

 ------------
 93.n.pdb.xyz
 ------------
 Symbolic Z-matrix:
 Charge =  0 Multiplicity = 1

 SCF Done:  E(RB3LYP) =  -1075.80271997     A.U. after   12 cycles
 SCF Done:  E(RB3LYP) =  -1075.80722667     A.U. after    9 cycles
 SCF Done:  E(RB3LYP) =  -1075.80755172     A.U. after   10 cycles
 SCF Done:  E(RB3LYP) =  -1075.80978281     A.U. after   10 cycles
 SCF Done:  E(RB3LYP) =  -1075.81021040     A.U. after   12 cycles
 SCF Done:  E(RB3LYP) =  -1075.81039207     A.U. after   10 cycles
 SCF Done:  E(RB3LYP) =  -1075.81052309     A.U. after    9 cycles
 SCF Done:  E(RB3LYP) =  -1075.81065870     A.U. after    9 cycles
 SCF Done:  E(RB3LYP) =  -1075.81075631     A.U. after   10 cycles
 SCF Done:  E(RB3LYP) =  -1075.81077933     A.U. after    8 cycles
 SCF Done:  E(RB3LYP) =  -1075.81086440     A.U. after   10 cycles
 SCF Done:  E(RB3LYP) =  -1075.81086729     A.U. after   10 cycles
 SCF Done:  E(RB3LYP) =  -1075.81091768     A.U. after   10 cycles
 SCF Done:  E(RB3LYP) =  -1075.81093823     A.U. after    7 cycles
 SCF Done:  E(RB3LYP) =  -1075.81093536     A.U. after    7 cycles
 SCF Done:  E(RB3LYP) =  -1075.81093852     A.U. after    7 cycles
 SCF Done:  E(RB3LYP) =  -1075.81093865     A.U. after    7 cycles
 Optimization completed.
    -- Stationary point found.
 Normal termination of Gaussian 16 at Tue Mar  1 20:28:57 2022.

 --------------------------------------------------------------------
 #P Geom=AllCheck Guess=TCheck SCRF=Check GenChk RB3LYP/6-31G(d) Freq
 --------------------------------------------------------------------

 Structure from the checkpoint file:  "93.n.pdb.xyz.mst.wat.chk"
 ------------
 93.n.pdb.xyz
 ------------
 Charge =  0 Multiplicity = 1

 SCF Done:  E(RB3LYP) =  -1075.81093865     A.U. after    1 cycles

  Exact polarizability: 356.171 -14.379 365.037  25.477  18.766 227.356
 Approx polarizability: 382.040 -17.285 397.089  29.261  24.618 249.904

                      1                      2                      3
                      A                      A                      A
 Frequencies --     12.5812                22.0651                34.4788
 Red. masses --      5.1833                 4.6397                 4.3058
 Frc consts  --      0.0005                 0.0013                 0.0030
 IR Inten    --      0.0171                 0.4061                 0.6296

                      4                      5                      6
                      A                      A                      A
 Frequencies --     35.1206                71.2460                78.2309
 Red. masses --      4.0237                 3.8790                 3.3842
 Frc consts  --      0.0029                 0.0116                 0.0122
 IR Inten    --      0.8442                 7.2168                 0.9744

                      7                      8                      9
                      A                      A                      A
 Frequencies --     88.1126               102.5826               120.1169
 Red. masses --      3.3329                 2.3150                 3.4328
 Frc consts  --      0.0152                 0.0144                 0.0292
 IR Inten    --      2.2886                 0.4542                 0.8433

                     10                     11                     12
                      A                      A                      A
 Frequencies --    123.1676               154.5578               184.0800
 Red. masses --      3.1212                 4.4915                 2.8487
 Frc consts  --      0.0279                 0.0632                 0.0569
 IR Inten    --      0.6446                 6.7964                 0.8898

                     13                     14                     15
                      A                      A                      A
 Frequencies --    196.7795               212.4900               225.0632
 Red. masses --      2.9345                 3.5309                 2.9915
 Frc consts  --      0.0670                 0.0939                 0.0893
 IR Inten    --      1.9450                 2.5012                 2.5056

                     16                     17                     18
                      A                      A                      A
 Frequencies --    234.3139               246.4615               258.9997
 Red. masses --      3.3767                 2.4625                 1.2984
 Frc consts  --      0.1092                 0.0881                 0.0513
 IR Inten    --      5.1201                 2.6900                 0.3499

                     19                     20                     21
                      A                      A                      A
 Frequencies --    271.6352               297.6873               342.0139
 Red. masses --      2.3456                 3.2392                 3.7475
 Frc consts  --      0.1020                 0.1691                 0.2583
 IR Inten    --      1.9809                 7.4509                 6.6219

                     22                     23                     24
                      A                      A                      A
 Frequencies --    372.8544               384.2671               387.7692
 Red. masses --      3.9797                 4.7111                 4.7969
 Frc consts  --      0.3260                 0.4099                 0.4250
 IR Inten    --      4.5213                 8.3466                 1.6457

                     25                     26                     27
                      A                      A                      A
 Frequencies --    422.9915               449.6843               467.0376
 Red. masses --      3.0695                 4.7417                 3.5012
 Frc consts  --      0.3236                 0.5649                 0.4500
 IR Inten    --      0.4597                 9.2041                 4.5830

                     28                     29                     30
                      A                      A                      A
 Frequencies --    479.7319               487.3072               523.9513
 Red. masses --      4.0341                 2.8128                 4.4190
 Frc consts  --      0.5470                 0.3935                 0.7148
 IR Inten    --      6.4065                 4.3060                 4.1249

                     31                     32                     33
                      A                      A                      A
 Frequencies --    552.0841               552.9304               585.4276
 Red. masses --      4.3501                 3.5297                 3.4964
 Frc consts  --      0.7812                 0.6358                 0.7060
 IR Inten    --      7.4752                 2.0697                29.7914

                     34                     35                     36
                      A                      A                      A
 Frequencies --    602.6084               622.3192               635.1034
 Red. masses --      3.7758                 3.8656                 6.3845
 Frc consts  --      0.8079                 0.8820                 1.5173
 IR Inten    --     18.9292                 0.1916                 0.1409

                     37                     38                     39
                      A                      A                      A
 Frequencies --    651.1270               680.2813               710.4341
 Red. masses --      2.8435                 2.8609                 3.5423
 Frc consts  --      0.7103                 0.7801                 1.0534
 IR Inten    --     35.4901                16.9322                11.9593

                     40                     41                     42
                      A                      A                      A
 Frequencies --    722.4325               733.5593               751.1472
 Red. masses --      2.4604                 2.4998                 3.8702
 Frc consts  --      0.7566                 0.7926                 1.2866
 IR Inten    --     22.9060                79.2068                18.5324

                     43                     44                     45
                      A                      A                      A
 Frequencies --    762.7974               804.9472               809.2329
 Red. masses --      1.6995                 2.2609                 3.5913
 Frc consts  --      0.5826                 0.8631                 1.3856
 IR Inten    --     13.9030                 9.5814                61.3244

                     46                     47                     48
                      A                      A                      A
 Frequencies --    844.7913               848.5094               854.9144
 Red. masses --      1.4317                 2.1576                 1.8166
 Frc consts  --      0.6020                 0.9152                 0.7823
 IR Inten    --    131.5416                57.1334                10.0219

                     49                     50                     51
                      A                      A                      A
 Frequencies --    868.4892               875.8956               878.6611
 Red. masses --      1.4589                 1.4288                 2.2627
 Frc consts  --      0.6483                 0.6458                 1.0293
 IR Inten    --     51.1833                 6.5737                13.1480

                     52                     53                     54
                      A                      A                      A
 Frequencies --    880.8341               940.0634               948.9909
 Red. masses --      1.2493                 1.6106                 2.2235
 Frc consts  --      0.5711                 0.8386                 1.1798
 IR Inten    --      3.0438                12.1996                 2.3418

                     55                     56                     57
                      A                      A                      A
 Frequencies --    954.9694               961.1398               968.1568
 Red. masses --      2.3242                 2.7846                 2.4406
 Frc consts  --      1.2488                 1.5156                 1.3478
 IR Inten    --      3.2239                34.9234                79.3472

                     58                     59                     60
                      A                      A                      A
 Frequencies --    981.1346               992.1033               997.7593
 Red. masses --      2.3327                 2.9314                 1.3820
 Frc consts  --      1.3230                 1.7000                 0.8106
 IR Inten    --     13.8918                 9.0920                 2.2240

                     61                     62                     63
                      A                      A                      A
 Frequencies --   1010.5939              1013.0065              1018.0155
 Red. masses --      2.1688                 1.7098                 4.3140
 Frc consts  --      1.3050                 1.0337                 2.6341
 IR Inten    --     36.1635                20.5972                 1.2483

                     64                     65                     66
                      A                      A                      A
 Frequencies --   1042.3292              1053.0309              1061.0737
 Red. masses --      2.2515                 3.2035                 2.2936
 Frc consts  --      1.4412                 2.0930                 1.5214
 IR Inten    --     32.1630                12.1206                21.9531

                     67                     68                     69
                      A                      A                      A
 Frequencies --   1072.4601              1079.5968              1084.8963
 Red. masses --      2.6435                 2.4373                 1.6979
 Frc consts  --      1.7914                 1.6737                 1.1775
 IR Inten    --     22.3487                45.7260                17.9041

                     70                     71                     72
                      A                      A                      A
 Frequencies --   1103.1412              1117.0820              1137.5638
 Red. masses --      1.6685                 2.0561                 3.2472
 Frc consts  --      1.1963                 1.5117                 2.4758
 IR Inten    --     11.6500                 8.0370                22.4597

                     73                     74                     75
                      A                      A                      A
 Frequencies --   1144.6867              1156.2040              1179.3728
 Red. masses --      4.1347                 2.5847                 2.8294
 Frc consts  --      3.1920                 2.0358                 2.3187
 IR Inten    --    130.9251                 9.0348                59.2144

                     76                     77                     78
                      A                      A                      A
 Frequencies --   1183.4788              1186.1107              1195.5885
 Red. masses --      1.0962                 1.2687                 1.2504
 Frc consts  --      0.9046                 1.0516                 1.0531
 IR Inten    --      2.1267                 1.8420                10.4383

                     79                     80                     81
                      A                      A                      A
 Frequencies --   1207.2717              1212.7118              1214.3596
 Red. masses --      1.3286                 1.3594                 1.3405
 Frc consts  --      1.1409                 1.1779                 1.1647
 IR Inten    --     69.4159                40.8765                27.3227

                     82                     83                     84
                      A                      A                      A
 Frequencies --   1221.4959              1225.9829              1239.4087
 Red. masses --      1.7627                 2.1047                 1.2947
 Frc consts  --      1.5496                 1.8639                 1.1718
 IR Inten    --      3.6651               106.2289                35.6327

                     85                     86                     87
                      A                      A                      A
 Frequencies --   1245.1954              1261.2764              1279.8890
 Red. masses --      1.2713                 1.3894                 1.2597
 Frc consts  --      1.1614                 1.3022                 1.2158
 IR Inten    --     59.4153               204.1666                16.6972

                     88                     89                     90
                      A                      A                      A
 Frequencies --   1286.0103              1307.4699              1312.4860
 Red. masses --      1.2266                 1.3705                 1.4525
 Frc consts  --      1.1952                 1.3804                 1.4742
 IR Inten    --      3.8471                 8.1938                14.8459

                     91                     92                     93
                      A                      A                      A
 Frequencies --   1324.8255              1346.7346              1355.1550
 Red. masses --      1.7447                 5.4381                 1.5845
 Frc consts  --      1.8042                 5.8111                 1.7144
 IR Inten    --     11.1542               105.6494                12.3773

                     94                     95                     96
                      A                      A                      A
 Frequencies --   1356.9833              1362.6925              1367.6504
 Red. masses --      1.3648                 1.7648                 2.3080
 Frc consts  --      1.4807                 1.9308                 2.5435
 IR Inten    --      9.9347                 2.9443                18.6661

                     97                     98                     99
                      A                      A                      A
 Frequencies --   1379.3085              1382.7560              1401.1876
 Red. masses --      1.6361                 1.3526                 1.5846
 Frc consts  --      1.8339                 1.5237                 1.8330
 IR Inten    --     19.6360                32.8757                42.1335

                    100                    101                    102
                      A                      A                      A
 Frequencies --   1405.3529              1417.9183              1429.6665
 Red. masses --      1.4481                 1.4074                 1.4313
 Frc consts  --      1.6851                 1.6672                 1.7237
 IR Inten    --     15.8063                11.6537                51.2583

                    103                    104                    105
                      A                      A                      A
 Frequencies --   1489.2157              1489.7506              1494.9656
 Red. masses --      3.8258                 2.0843                 1.5459
 Frc consts  --      4.9991                 2.7254                 2.0356
 IR Inten    --     24.1659                10.8642               189.5477

                    106                    107                    108
                      A                      A                      A
 Frequencies --   1498.7882              1505.6078              1505.9771
 Red. masses --      1.3119                 1.1238                 1.0909
 Frc consts  --      1.7363                 1.5009                 1.4578
 IR Inten    --      8.5018                13.1746                 5.2091

                    109                    110                    111
                      A                      A                      A
 Frequencies --   1513.8110              1519.5675              1522.2560
 Red. masses --      1.0483                 1.1738                 1.7285
 Frc consts  --      1.4153                 1.5970                 2.3599
 IR Inten    --      8.1475                23.7480               197.6161

                    112                    113                    114
                      A                      A                      A
 Frequencies --   1524.8861              1531.6567              1534.4220
 Red. masses --      1.1545                 1.0920                 1.1034
 Frc consts  --      1.5817                 1.5093                 1.5307
 IR Inten    --     22.4524                 5.5375                 2.7777

                    115                    116                    117
                      A                      A                      A
 Frequencies --   1540.0731              1542.2804              1546.6164
 Red. masses --      2.0628                 1.2147                 1.0902
 Frc consts  --      2.8827                 1.7023                 1.5365
 IR Inten    --     35.0429                25.8496                 3.1362

                    118                    119                    120
                      A                      A                      A
 Frequencies --   1634.9330              1658.9092              1660.2279
 Red. masses --      5.6168                 5.5300                 7.2644
 Frc consts  --      8.8458                 8.9664                11.7973
 IR Inten    --      0.1044                13.3255                15.3756

                    121                    122                    123
                      A                      A                      A
 Frequencies --   1674.7401              2940.7131              2989.1771
 Red. masses --      7.7581                 1.0809                 1.0715
 Frc consts  --     12.8203                 5.5075                 5.6409
 IR Inten    --     25.7615               136.1007               137.8895

                    124                    125                    126
                      A                      A                      A
 Frequencies --   2990.4788              3035.4307              3049.3499
 Red. masses --      1.0727                 1.0850                 1.0337
 Frc consts  --      5.6522                 5.8901                 5.6632
 IR Inten    --    123.1891                70.1985                79.4235

                    127                    128                    129
                      A                      A                      A
 Frequencies --   3059.1625              3064.3568              3066.5944
 Red. masses --      1.0864                 1.0677                 1.0602
 Frc consts  --      5.9905                 5.9070                 5.8743
 IR Inten    --     71.5501                53.2932                65.5965

                    130                    131                    132
                      A                      A                      A
 Frequencies --   3076.3797              3081.0296              3095.7716
 Red. masses --      1.0678                 1.0658                 1.0907
 Frc consts  --      5.9543                 5.9608                 6.1588
 IR Inten    --     97.1005                67.3925                74.5048

                    133                    134                    135
                      A                      A                      A
 Frequencies --   3103.5501              3109.9697              3120.8523
 Red. masses --      1.1018                 1.1068                 1.0963
 Frc consts  --      6.2528                 6.3072                 6.2909
 IR Inten    --      5.9058                63.5155                35.4796

                    136                    137                    138
                      A                      A                      A
 Frequencies --   3121.4654              3155.5316              3179.1696
 Red. masses --      1.1046                 1.1023                 1.1012
 Frc consts  --      6.3410                 6.4671                 6.5576
 IR Inten    --    126.8598                55.7540                37.1614

                    139                    140                    141
                      A                      A                      A
 Frequencies --   3190.9935              3199.0630              3210.7162
 Red. masses --      1.0852                 1.0901                 1.0903
 Frc consts  --      6.5108                 6.5727                 6.6222
 IR Inten    --      0.1432                47.5321                15.0208

                    142                    143                    144
                      A                      A                      A
 Frequencies --   3214.6093              3235.6826              3238.3985
 Red. masses --      1.0955                 1.0905                 1.0915
 Frc consts  --      6.6702                 6.7266                 6.7443
 IR Inten    --     55.0447                14.9128                12.5903

                    145                    146                    147
                      A                      A                      A
 Frequencies --   3243.1255              3475.0973              3531.5445
 Red. masses --      1.0902                 1.0746                 1.0757
 Frc consts  --      6.7561                 7.6458                 7.9042
 IR Inten    --     11.7567                 1.5054                 9.3278

 - Thermochemistry -
 -------------------
 Temperature   298.150 Kelvin.  Pressure   1.00000 Atm.
 Atom     1 has atomic number  6 and mass  12.00000

 Molecular mass:   338.19943 amu.
 Principal axes and moments of inertia in atomic units:
                           1         2         3
     Eigenvalues --  5425.44773********************
           X            0.99993  -0.00889   0.00753
           Y            0.00892   0.99996  -0.00300
           Z           -0.00750   0.00307   0.99997
 This molecule is an asymmetric top.
 Rotational symmetry number  1.
 Warning -- assumption of classical behavior for rotation
           may cause significant error
 Rotational temperatures (Kelvin)      0.01596     0.00529     0.00450
 Rotational constants (GHZ):           0.33264     0.11027     0.09374
 Zero-point vibrational energy    1159236.1 (Joules/Mol)
                                  277.06408 (Kcal/Mol)
 Warning -- explicit consideration of  34 degrees of freedom as
           vibrations may cause significant error
 Vibrational temperatures:     18.10    31.75    49.61    50.53   102.51
          (Kelvin)            112.56   126.77   147.59   172.82   177.21
                              222.37   264.85   283.12   305.73   323.82
                              337.13   354.60   372.64   390.82   428.31
                              492.08   536.45   552.87   557.91   608.59
                              647.00   671.96   690.23   701.13   753.85
                              794.33   795.54   842.30   867.02   895.38
                              913.77   936.83   978.77  1022.16  1039.42
                             1055.43  1080.73  1097.50  1158.14  1164.31
                             1215.47  1220.82  1230.03  1249.56  1260.22
                             1264.20  1267.32  1352.54  1365.39  1373.99
                             1382.87  1392.96  1411.63  1427.42  1435.55
                             1454.02  1457.49  1464.70  1499.68  1515.08
                             1526.65  1543.03  1553.30  1560.92  1587.17
                             1607.23  1636.70  1646.95  1663.52  1696.85
                             1702.76  1706.55  1720.19  1736.99  1744.82
                             1747.19  1757.46  1763.92  1783.23  1791.56
                             1814.70  1841.47  1850.28  1881.16  1888.37
                             1906.13  1937.65  1949.77  1952.40  1960.61
                             1967.74  1984.52  1989.48  2016.00  2021.99
                             2040.07  2056.97  2142.65  2143.42  2150.92
                             2156.42  2166.23  2166.77  2178.04  2186.32
                             2190.19  2193.97  2203.71  2207.69  2215.82
                             2219.00  2225.24  2352.30  2386.80  2388.70
                             2409.58  4231.03  4300.76  4302.63  4367.31
                             4387.33  4401.45  4408.93  4412.15  4426.22
                             4432.91  4454.12  4465.32  4474.55  4490.21
                             4491.09  4540.11  4574.12  4591.13  4602.74
                             4619.50  4625.11  4655.43  4659.33  4666.13
                             4999.89  5081.10

 Zero-point correction=                           0.441530 (Hartree/Particle)
 Thermal correction to Energy=                    0.463854
 Thermal correction to Enthalpy=                  0.464798
 Thermal correction to Gibbs Free Energy=         0.387479
 Sum of electronic and zero-point Energies=          -1075.369409
 Sum of electronic and thermal Energies=             -1075.347084
 Sum of electronic and thermal Enthalpies=           -1075.346140
 Sum of electronic and thermal Free Energies=        -1075.423460

                     E (Thermal)             CV                S
                      KCal/Mol        Cal/Mol-Kelvin    Cal/Mol-Kelvin
 Total                  291.073             87.667            162.733
 Electronic               0.000              0.000              0.000
 Translational            0.889              2.981             43.350
 Rotational               0.889              2.981             35.790
 Vibrational            289.295             81.705             83.593
 Vibration     1          0.593              1.987              7.555
 Vibration     2          0.593              1.985              6.439
 Vibration     3          0.594              1.983              5.553
 Vibration     4          0.594              1.982              5.517
 Vibration     5          0.598              1.968              4.119
 Vibration     6          0.600              1.964              3.935
 Vibration     7          0.601              1.958              3.702
 Vibration     8          0.605              1.947              3.405
 Vibration     9          0.609              1.932              3.098
 Vibration    10          0.610              1.930              3.050
 Vibration    11          0.620              1.898              2.615
 Vibration    12          0.631              1.862              2.287
 Vibration    13          0.636              1.844              2.163
 Vibration    14          0.644              1.822              2.022
 Vibration    15          0.650              1.803              1.918
 Vibration    16          0.654              1.788              1.846
 Vibration    17          0.661              1.769              1.756
 Vibration    18          0.668              1.748              1.669
 Vibration    19          0.675              1.726              1.586
 Vibration    20          0.691              1.678              1.430
 Vibration    21          0.721              1.591              1.203
 Vibration    22          0.744              1.528              1.068
 Vibration    23          0.753              1.504              1.022
 Vibration    24          0.756              1.496              1.009
 Vibration    25          0.785              1.420              0.882
 Vibration    26          0.809              1.362              0.797
 Vibration    27          0.824              1.323              0.746
 Vibration    28          0.836              1.295              0.711
 Vibration    29          0.843              1.278              0.691
 Vibration    30          0.879              1.197              0.601
 Vibration    31          0.907              1.135              0.540
 Vibration    32          0.908              1.133              0.538
 Vibration    33          0.942              1.063              0.475
 Vibration    34          0.961              1.026              0.445

                           ! Non-Optimized Parameters !
 Normal termination of Gaussian 16 at Tue Mar  1 22:02:28 2022.

 ------------------------------------------
 #p b3lyp/6-31G(d) geom=allcheck guess=read
 ------------------------------------------

 Structure from the checkpoint file:  "93.n.pdb.xyz.mst.wat.chk"
 ------------
 93.n.pdb.xyz
 ------------
 Charge =  0 Multiplicity = 1

 SCF Done:  E(RB3LYP) =  -1075.79545475     A.U. after   11 cycles
 Normal termination of Gaussian 16 at Tue Mar  1 22:07:26 2022.
 Gaussian 16:  ES64L-G16RevA.03 25-Dec-2016

 ----------------------------------------------------------------------
 #p b3lyp/6-31G(d) scrf=(iefpcm,read,solvent=water) geom=allcheck guess
 =read
 ----------------------------------------------------------------------

 Structure from the checkpoint file:  "93.n.pdb.xyz.mst.wat.chk"
 ------------
 93.n.pdb.xyz
 ------------
 Charge =  0 Multiplicity = 1

                         Standard orientation:
 ---------------------------------------------------------------------
 Center     Atomic      Atomic             Coordinates (Angstroms)
 Number     Number       Type             X           Y           Z
 ---------------------------------------------------------------------
      1          6           0       -5.169639    3.241813    0.756721
      2          8           0       -3.935091    2.648061    1.139878
      3          6           0       -3.650869    1.403299    0.639823
      4          6           0       -4.507358    0.689984   -0.212911
      5          6           0       -4.106371   -0.570554   -0.642179
      6          6           0       -2.884120   -1.100822   -0.238778
      7          8           0       -2.632584   -2.346070   -0.762921
      8          6           0       -3.870940   -2.805901   -1.376669
      9          6           0       -4.758767   -1.558462   -1.580486
     10          6           0       -2.013983   -0.416971    0.611773
     11          6           0       -0.687136   -1.002301    1.025106
     12          7           0        0.410573   -0.485243    0.186482
     13          6           0        1.676116   -1.182866    0.448671
     14          6           0        2.234627   -0.872377    1.848604
     15          6           0        3.714847   -1.308249    1.955104
     16          6           0        4.046430   -2.394344    0.931448
     17          7           0        3.864668   -1.895251   -0.448830
     18          6           0        2.762235   -0.923165   -0.629570
     19          6           0        3.285183    0.520360   -0.723417
     20          6           0        2.406359    1.614396   -0.795457
     21          6           0        2.889338    2.916138   -0.944693
     22          6           0        4.262356    3.156304   -1.033966
     23          6           0        5.145260    2.077706   -0.972106
     24          6           0        4.659062    0.776957   -0.821298
     25          6           0       -2.425601    0.851978    1.036212
     26          1           0       -6.022078    2.632169    1.075962
     27          1           0       -5.206796    4.209026    1.257123
     28          1           0       -5.222932    3.389168   -0.327902
     29          1           0       -5.456825    1.105263   -0.525994
     30          1           0       -4.337624   -3.520930   -0.691865
     31          1           0       -3.607109   -3.318381   -2.301994
     32          1           0       -4.723867   -1.200630   -2.615805
     33          1           0       -5.804817   -1.763360   -1.339574
     34          1           0       -0.475832   -0.734121    2.064428
     35          1           0       -0.744193   -2.102029    0.980289
     36          1           0        0.154851   -0.662055   -0.785345
     37          1           0        1.505617   -2.273408    0.402556
     38          1           0        1.632100   -1.390332    2.601355
     39          1           0        2.136438    0.200277    2.045880
     40          1           0        3.937010   -1.678374    2.959916
     41          1           0        4.372439   -0.450904    1.782333
     42          1           0        5.086852   -2.718607    1.049104
     43          1           0        3.416833   -3.274412    1.136032
     44          1           0        3.694453   -2.690976   -1.057510
     45          1           0        2.307036   -1.148784   -1.602160
     46          1           0        1.341624    1.436990   -0.708722
     47          1           0        2.188764    3.744657   -0.992366
     48          1           0        4.636913    4.168324   -1.151945
     49          1           0        6.215750    2.245681   -1.043493
     50          1           0        5.339557   -0.064963   -0.781688
     51          1           0       -1.791645    1.430690    1.700565
 ---------------------------------------------------------------------

 SCF Done:  E(RB3LYP) =  -1075.80811314     A.U. after   10 cycles

 The electronic state is 1-A.
 Alpha  occ. eigenvalues --  -19.17514 -19.17175 -14.31513 -14.30993 -10.24347
 Alpha  occ. eigenvalues --  -10.23847 -10.23374 -10.23163 -10.21445 -10.20755
 Alpha  occ. eigenvalues --  -10.20646 -10.19951 -10.19522 -10.19447 -10.19357
 Alpha  occ. eigenvalues --  -10.18938 -10.18737 -10.18525 -10.18382 -10.18352
 Alpha  occ. eigenvalues --  -10.18302 -10.17653 -10.17630 -10.17559 -10.17336
 Alpha  occ. eigenvalues --   -1.06050  -1.05890  -0.91505  -0.88990  -0.85090
 Alpha  occ. eigenvalues --   -0.84347  -0.79504  -0.77060  -0.76276  -0.75000
 Alpha  occ. eigenvalues --   -0.73619  -0.73451  -0.71275  -0.69446  -0.66615
 Alpha  occ. eigenvalues --   -0.63842  -0.62118  -0.61042  -0.59310  -0.59164
 Alpha  occ. eigenvalues --   -0.58033  -0.57216  -0.53035  -0.51621  -0.50903
 Alpha  occ. eigenvalues --   -0.50714  -0.49958  -0.49559  -0.48198  -0.47994
 Alpha  occ. eigenvalues --   -0.46811  -0.46218  -0.44452  -0.44305  -0.43755
 Alpha  occ. eigenvalues --   -0.42974  -0.42260  -0.41844  -0.40896  -0.40692
 Alpha  occ. eigenvalues --   -0.40109  -0.39595  -0.39353  -0.38862  -0.38562
 Alpha  occ. eigenvalues --   -0.38325  -0.37945  -0.37581  -0.36345  -0.35594
 Alpha  occ. eigenvalues --   -0.35084  -0.34413  -0.34049  -0.33521  -0.33050
 Alpha  occ. eigenvalues --   -0.32761  -0.31840  -0.31323  -0.30615  -0.28171
 Alpha  occ. eigenvalues --   -0.24737  -0.24495  -0.23714  -0.22159  -0.21451
 Alpha  occ. eigenvalues --   -0.19621
 Alpha virt. eigenvalues --   -0.00984   0.00158   0.00502   0.02441   0.08126
 Alpha virt. eigenvalues --    0.09872   0.10420   0.10901   0.11002   0.11437
 Alpha virt. eigenvalues --    0.11878   0.12562   0.13098   0.13167   0.13449

 Mulliken charges:
               1
     1  C   -0.223812
     2  O   -0.538564
     3  C    0.370941
     4  C   -0.294206
     5  C    0.095519
     6  C    0.280264
     7  O   -0.568079
     8  C   -0.045420
     9  C   -0.363764
    10  C    0.099482
    11  C   -0.202081
    12  N   -0.587230
    13  C    0.066765
    14  C   -0.276146
    15  C   -0.285888
    16  C   -0.127101
    17  N   -0.598200
    18  C   -0.089892
    19  C    0.138530
    20  C   -0.198857
    21  C   -0.160344
    22  C   -0.153184
    23  C   -0.157486
    24  C   -0.189991
    25  C   -0.264364
    26  H    0.163257
    27  H    0.177408
    28  H    0.163243
    29  H    0.158005
    30  H    0.163711
    31  H    0.169037
    32  H    0.176614
    33  H    0.175946
    34  H    0.159949
    35  H    0.130283
    36  H    0.325571
    37  H    0.117007
    38  H    0.143441
    39  H    0.143248
    40  H    0.143945
    41  H    0.149159
    42  H    0.135224
    43  H    0.128761
    44  H    0.338959
    45  H    0.152814
    46  H    0.155012
    47  H    0.140417
    48  H    0.140965
    49  H    0.139995
    50  H    0.141052
    51  H    0.140082
 Sum of Mulliken charges =  -0.00000

 Dipole moment (field-independent basis, Debye):
    X=             -5.2357    Y=             -3.0020    Z=             -1.5426  Tot=              6.2293
 Quadrupole moment (field-independent basis, Debye-Ang):
   XX=           -123.8875   YY=           -134.3788   ZZ=           -145.6322
   XY=             -6.7937   XZ=             11.6826   YZ=              2.5739

 Normal termination of Gaussian 16 at Tue Mar  1 22:13:08 2022.
