 Gaussian 16, Revision A.03,

 ----------------------------------------------------------------------
 #p b3lyp/6-31G(d) opt=(MaxStep=10,MaxCycles=1000) freq scf=(MaxCycle=2
 000,NoVarAcc,NoIncFock) scrf=(iefpcm,read,solvent=water)
 ----------------------------------------------------------------------

 ------------
 94.n.pdb.xyz
 ------------
 Symbolic Z-matrix:
 Charge =  0 Multiplicity = 1

 SCF Done:  E(RB3LYP) =  -983.751727882     A.U. after   12 cycles
 SCF Done:  E(RB3LYP) =  -983.754687922     A.U. after    9 cycles
 SCF Done:  E(RB3LYP) =  -983.753758562     A.U. after   10 cycles
 SCF Done:  E(RB3LYP) =  -983.755910162     A.U. after    9 cycles
 SCF Done:  E(RB3LYP) =  -983.755532765     A.U. after   10 cycles
 SCF Done:  E(RB3LYP) =  -983.756140479     A.U. after   10 cycles
 SCF Done:  E(RB3LYP) =  -983.756215429     A.U. after    8 cycles
 SCF Done:  E(RB3LYP) =  -983.756232598     A.U. after    8 cycles
 SCF Done:  E(RB3LYP) =  -983.756247991     A.U. after    9 cycles
 SCF Done:  E(RB3LYP) =  -983.756260071     A.U. after    9 cycles
 SCF Done:  E(RB3LYP) =  -983.756257941     A.U. after    9 cycles
 SCF Done:  E(RB3LYP) =  -983.756282257     A.U. after    9 cycles
 SCF Done:  E(RB3LYP) =  -983.756278954     A.U. after    8 cycles
 SCF Done:  E(RB3LYP) =  -983.756283966     A.U. after    7 cycles
 SCF Done:  E(RB3LYP) =  -983.756283965     A.U. after    7 cycles
 SCF Done:  E(RB3LYP) =  -983.756285364     A.U. after    7 cycles
 SCF Done:  E(RB3LYP) =  -983.756286107     A.U. after    7 cycles
 Optimization completed.
    -- Stationary point found.
 Normal termination of Gaussian 16 at Tue Mar  1 21:42:12 2022.

 --------------------------------------------------------------------
 #P Geom=AllCheck Guess=TCheck SCRF=Check GenChk RB3LYP/6-31G(d) Freq
 --------------------------------------------------------------------

 Structure from the checkpoint file:  "94.n.pdb.xyz.mst.wat.chk"
 ------------
 94.n.pdb.xyz
 ------------
 Charge =  0 Multiplicity = 1

 SCF Done:  E(RB3LYP) =  -983.756286107     A.U. after    1 cycles

  Exact polarizability: 343.633  -2.187 269.573  -8.372 -16.464 198.821
 Approx polarizability: 337.405  -1.691 299.035  -9.284 -22.609 218.437

                      1                      2                      3
                      A                      A                      A
 Frequencies --     15.5301                17.9525                22.8106
 Red. masses --      4.2564                 3.7833                 3.4026
 Frc consts  --      0.0006                 0.0007                 0.0010
 IR Inten    --      0.1512                 0.0744                 0.3521

                      4                      5                      6
                      A                      A                      A
 Frequencies --     30.5958                32.3753                42.1957
 Red. masses --      3.1574                 3.0767                 4.1116
 Frc consts  --      0.0017                 0.0019                 0.0043
 IR Inten    --      0.0731                 0.2427                 0.1759

                      7                      8                      9
                      A                      A                      A
 Frequencies --     50.3574                68.0924                75.2019
 Red. masses --      4.3882                 3.5593                 4.2216
 Frc consts  --      0.0066                 0.0097                 0.0141
 IR Inten    --      0.9801                 1.6016                 0.5416

                     10                     11                     12
                      A                      A                      A
 Frequencies --     78.9475               118.4953               131.1649
 Red. masses --      2.7933                 3.4812                 3.5076
 Frc consts  --      0.0103                 0.0288                 0.0356
 IR Inten    --      0.8386                 1.7372                 6.5166

                     13                     14                     15
                      A                      A                      A
 Frequencies --    141.7707               153.7336               163.4362
 Red. masses --      2.9425                 2.5666                 4.2974
 Frc consts  --      0.0348                 0.0357                 0.0676
 IR Inten    --      4.6917                 1.8220                 1.5715

                     16                     17                     18
                      A                      A                      A
 Frequencies --    199.7491               212.4824               233.0862
 Red. masses --      2.6707                 4.9551                 1.2479
 Frc consts  --      0.0628                 0.1318                 0.0399
 IR Inten    --      4.1971                 0.0871                 3.6398

                     19                     20                     21
                      A                      A                      A
 Frequencies --    242.2684               264.0653               275.1495
 Red. masses --      1.8660                 1.1851                 2.9367
 Frc consts  --      0.0645                 0.0487                 0.1310
 IR Inten    --     22.4564                 9.6031                13.4398

                     22                     23                     24
                      A                      A                      A
 Frequencies --    292.8749               320.7154               330.8842
 Red. masses --      2.4524                 2.1086                 1.7401
 Frc consts  --      0.1239                 0.1278                 0.1122
 IR Inten    --     26.5652                62.6134               107.9702

                     25                     26                     27
                      A                      A                      A
 Frequencies --    351.7093               385.1800               392.0267
 Red. masses --      2.4053                 3.4851                 2.7577
 Frc consts  --      0.1753                 0.3046                 0.2497
 IR Inten    --     15.6777                15.5721                 2.1098

                     28                     29                     30
                      A                      A                      A
 Frequencies --    403.1862               427.7099               445.8681
 Red. masses --      2.8894                 3.1596                 3.2864
 Frc consts  --      0.2767                 0.3405                 0.3849
 IR Inten    --      5.0272                 0.1676                 3.5990

                     31                     32                     33
                      A                      A                      A
 Frequencies --    463.0875               480.4108               492.0276
 Red. masses --      3.0182                 2.7155                 2.8464
 Frc consts  --      0.3814                 0.3693                 0.4060
 IR Inten    --      3.1604                10.7966                 9.3054

                     34                     35                     36
                      A                      A                      A
 Frequencies --    524.6994               540.2211               562.3297
 Red. masses --      3.0887                 2.7412                 2.8382
 Frc consts  --      0.5010                 0.4713                 0.5288
 IR Inten    --     24.8186                 9.9050                 3.0147

                     37                     38                     39
                      A                      A                      A
 Frequencies --    622.4277               652.1871               730.0896
 Red. masses --      3.9228                 6.6560                 4.2921
 Frc consts  --      0.8954                 1.6681                 1.3479
 IR Inten    --     30.1277                 0.5469                 5.0827

                     40                     41                     42
                      A                      A                      A
 Frequencies --    780.6553               785.6174               798.5646
 Red. masses --      1.1157                 1.3093                 2.7333
 Frc consts  --      0.4006                 0.4761                 1.0270
 IR Inten    --      1.8740                 2.2901                 9.7879

                     43                     44                     45
                      A                      A                      A
 Frequencies --    822.0985               825.4497               834.2543
 Red. masses --      1.4750                 1.7589                 1.3093
 Frc consts  --      0.5873                 0.7061                 0.5369
 IR Inten    --      3.6346                95.1935                12.9268

                     46                     47                     48
                      A                      A                      A
 Frequencies --    842.4016               844.8570               850.4715
 Red. masses --      1.7513                 1.9178                 1.7961
 Frc consts  --      0.7323                 0.8065                 0.7654
 IR Inten    --     17.5678                21.7695                78.3772

                     49                     50                     51
                      A                      A                      A
 Frequencies --    866.1199               902.4410               919.4448
 Red. masses --      3.8642                 2.8413                 2.7080
 Frc consts  --      1.7079                 1.3633                 1.3488
 IR Inten    --     18.1198                48.2510                28.7520

                     52                     53                     54
                      A                      A                      A
 Frequencies --    939.1839               941.7358               948.3916
 Red. masses --      1.2646                 1.5733                 1.4924
 Frc consts  --      0.6572                 0.8221                 0.7909
 IR Inten    --      7.6697                16.6695                 5.3364

                     55                     56                     57
                      A                      A                      A
 Frequencies --    955.4114               966.8634               967.1910
 Red. masses --      1.3486                 1.4209                 1.3153
 Frc consts  --      0.7253                 0.7826                 0.7249
 IR Inten    --      2.4516                 1.6638                 0.1806

                     58                     59                     60
                      A                      A                      A
 Frequencies --    996.1421               997.3271              1028.8844
 Red. masses --      2.9469                 1.8475                 2.5307
 Frc consts  --      1.7229                 1.0827                 1.5784
 IR Inten    --     31.5228                 6.9472                 3.5206

                     61                     62                     63
                      A                      A                      A
 Frequencies --   1032.4928              1039.0498              1041.6948
 Red. masses --      2.0375                 3.9484                 3.2237
 Frc consts  --      1.2797                 2.5116                 2.0611
 IR Inten    --      5.3380                29.7936               118.6286

                     64                     65                     66
                      A                      A                      A
 Frequencies --   1061.8334              1069.8062              1079.1200
 Red. masses --      1.4669                 1.8823                 2.3671
 Frc consts  --      0.9745                 1.2692                 1.6240
 IR Inten    --      1.8135                45.0353                50.8942

                     67                     68                     69
                      A                      A                      A
 Frequencies --   1083.0951              1105.9562              1118.2016
 Red. masses --      1.4480                 2.5371                 4.8066
 Frc consts  --      1.0008                 1.8284                 3.5410
 IR Inten    --      6.2736                29.4784               385.1116

                     70                     71                     72
                      A                      A                      A
 Frequencies --   1122.0971              1130.4488              1144.5035
 Red. masses --      3.0161                 2.3103                 1.2846
 Frc consts  --      2.2375                 1.7395                 0.9914
 IR Inten    --     71.2497                27.8980                40.9740

                     73                     74                     75
                      A                      A                      A
 Frequencies --   1148.6333              1170.8479              1199.8795
 Red. masses --      1.2091                 1.9499                 1.9272
 Frc consts  --      0.9399                 1.5749                 1.6348
 IR Inten    --     25.1089                36.0156                 8.7716

                     76                     77                     78
                      A                      A                      A
 Frequencies --   1202.5546              1202.9813              1206.0802
 Red. masses --      1.4503                 1.3342                 1.4678
 Frc consts  --      1.2357                 1.1376                 1.2580
 IR Inten    --     10.0500                19.2142                 3.6118

                     79                     80                     81
                      A                      A                      A
 Frequencies --   1211.9279              1231.5340              1235.3647
 Red. masses --      1.9582                 1.7162                 2.3471
 Frc consts  --      1.6945                 1.5336                 2.1104
 IR Inten    --     53.2865                 3.1048                 0.2176

                     82                     83                     84
                      A                      A                      A
 Frequencies --   1238.9516              1254.4470              1267.0510
 Red. masses --      1.2573                 1.5052                 1.1341
 Frc consts  --      1.1371                 1.3955                 1.0727
 IR Inten    --     25.3939                 6.3218                54.0298

                     85                     86                     87
                      A                      A                      A
 Frequencies --   1278.7591              1287.4252              1304.8613
 Red. masses --      3.6094                 1.2744                 1.1570
 Frc consts  --      3.4775                 1.2445                 1.1606
 IR Inten    --    534.0460                 8.5478                17.4468

                     88                     89                     90
                      A                      A                      A
 Frequencies --   1326.9580              1329.2129              1335.1942
 Red. masses --      1.4422                 1.3349                 1.1661
 Frc consts  --      1.4962                 1.3896                 1.2248
 IR Inten    --      2.1790                61.2343                18.9853

                     91                     92                     93
                      A                      A                      A
 Frequencies --   1346.9635              1366.0797              1371.4554
 Red. masses --      1.6009                 2.0280                 1.4827
 Frc consts  --      1.7113                 2.2299                 1.6431
 IR Inten    --     30.8232                37.0822                 1.6783

                     94                     95                     96
                      A                      A                      A
 Frequencies --   1385.1946              1394.3781              1403.7274
 Red. masses --      1.2988                 1.3055                 1.3371
 Frc consts  --      1.4683                 1.4955                 1.5523
 IR Inten    --     30.0819                18.9695                31.1237

                     97                     98                     99
                      A                      A                      A
 Frequencies --   1418.3882              1422.5734              1430.3540
 Red. masses --      1.3128                 1.3648                 1.3292
 Frc consts  --      1.5561                 1.6273                 1.6023
 IR Inten    --     28.3559                10.4091                15.0216

                    100                    101                    102
                      A                      A                      A
 Frequencies --   1434.4950              1456.9737              1464.5965
 Red. masses --      1.2735                 1.5754                 2.8557
 Frc consts  --      1.5440                 1.9704                 3.6092
 IR Inten    --     20.1567                20.6368                 0.7182

                    103                    104                    105
                      A                      A                      A
 Frequencies --   1465.5347              1488.1471              1494.0866
 Red. masses --      1.6865                 1.0896                 1.1134
 Frc consts  --      2.1342                 1.4217                 1.4644
 IR Inten    --     13.1367                 1.1958                16.2603

                    106                    107                    108
                      A                      A                      A
 Frequencies --   1496.5444              1505.7990              1511.2434
 Red. masses --      1.0989                 1.0578                 1.0614
 Frc consts  --      1.4501                 1.4132                 1.4282
 IR Inten    --      4.6293                 2.5205                 4.2075

                    109                    110                    111
                      A                      A                      A
 Frequencies --   1518.1788              1521.7753              1524.7977
 Red. masses --      1.1012                 1.1179                 1.0725
 Frc consts  --      1.4954                 1.5252                 1.4691
 IR Inten    --      9.5786                57.2074                14.5627

                    112                    113                    114
                      A                      A                      A
 Frequencies --   1525.6984              1530.7874              1537.4436
 Red. masses --      1.4139                 1.0975                 1.1113
 Frc consts  --      1.9392                 1.5153                 1.5477
 IR Inten    --      0.5040                 6.6257                 5.4072

                    115                    116                    117
                      A                      A                      A
 Frequencies --   1539.0351              1560.0397              1633.0519
 Red. masses --      1.1507                 2.3562                 6.5695
 Frc consts  --      1.6058                 3.3786                10.3225
 IR Inten    --     27.5003               174.3764                17.8614

                    118                    119                    120
                      A                      A                      A
 Frequencies --   1669.4404              2932.7500              2958.5250
 Red. masses --      5.9497                 1.0811                 1.0728
 Frc consts  --      9.7698                 5.4786                 5.5323
 IR Inten    --     77.8336               148.0151               115.4442

                    121                    122                    123
                      A                      A                      A
 Frequencies --   2996.9445              3011.1965              3030.3674
 Red. masses --      1.0584                 1.0679                 1.0832
 Frc consts  --      5.6007                 5.7051                 5.8608
 IR Inten    --     72.1989               108.5974                78.2973

                    124                    125                    126
                      A                      A                      A
 Frequencies --   3034.6959              3047.9735              3054.0476
 Red. masses --      1.1019                 1.0553                 1.0356
 Frc consts  --      5.9790                 5.7765                 5.6908
 IR Inten    --     65.0283                57.2659                41.9659

                    127                    128                    129
                      A                      A                      A
 Frequencies --   3059.2343              3063.8130              3094.2907
 Red. masses --      1.0365                 1.0595                 1.0969
 Frc consts  --      5.7151                 5.8599                 6.1877
 IR Inten    --     24.9614                67.9979                11.8509

                    130                    131                    132
                      A                      A                      A
 Frequencies --   3095.7000              3102.6509              3114.1158
 Red. masses --      1.1033                 1.0930                 1.1045
 Frc consts  --      6.2296                 6.1992                 6.3109
 IR Inten    --     20.6120               111.4740                94.1265

                    133                    134                    135
                      A                      A                      A
 Frequencies --   3121.5511              3123.8448              3129.6605
 Red. masses --      1.1028                 1.1014                 1.1021
 Frc consts  --      6.3313                 6.3325                 6.3601
 IR Inten    --     43.3975                68.9073                47.0331

                    136                    137                    138
                      A                      A                      A
 Frequencies --   3134.8034              3153.8915              3159.0657
 Red. masses --      1.1019                 1.0520                 1.0582
 Frc consts  --      6.3799                 6.1653                 6.2222
 IR Inten    --     81.0976                36.1735                22.7252

                    139                    140                    141
                      A                      A                      A
 Frequencies --   3172.3688              3193.0297              3195.1995
 Red. masses --      1.0897                 1.0897                 1.0885
 Frc consts  --      6.4611                 6.5457                 6.5473
 IR Inten    --     25.8233                30.1824                27.2621

                    142                    143                    144
                      A                      A                      A
 Frequencies --   3219.6467              3232.6892              3243.0602
 Red. masses --      1.0936                 1.1190                 1.0913
 Frc consts  --      6.6791                 6.8896                 6.7625
 IR Inten    --     20.1178                 0.6287                14.8934

                    145                    146                    147
                      A                      A                      A
 Frequencies --   3244.0990              3489.8574              3725.2151
 Red. masses --      1.1160                 1.0737                 1.0658
 Frc consts  --      6.9200                 7.7049                 8.7144
 IR Inten    --     43.3060                 5.0626                93.1894

 - Thermochemistry -
 -------------------
 Temperature   298.150 Kelvin.  Pressure   1.00000 Atm.
 Atom     1 has atomic number  6 and mass  12.00000

 Molecular mass:   307.21474 amu.
 Principal axes and moments of inertia in atomic units:
                           1         2         3
     Eigenvalues --  1695.37126********************
           X            1.00000  -0.00245  -0.00172
           Y            0.00244   0.99999  -0.00328
           Z            0.00173   0.00327   0.99999
 This molecule is an asymmetric top.
 Rotational symmetry number  1.
 Warning -- assumption of classical behavior for rotation
           may cause significant error
 Rotational temperatures (Kelvin)      0.05109     0.00260     0.00252
 Rotational constants (GHZ):           1.06451     0.05408     0.05241
 Zero-point vibrational energy    1183182.3 (Joules/Mol)
                                  282.78736 (Kcal/Mol)
 Warning -- explicit consideration of  36 degrees of freedom as
           vibrations may cause significant error
 Vibrational temperatures:     22.34    25.83    32.82    44.02    46.58
          (Kelvin)             60.71    72.45    97.97   108.20   113.59
                              170.49   188.72   203.98   221.19   235.15
                              287.39   305.71   335.36   348.57   379.93
                              395.88   421.38   461.44   476.07   506.03
                              554.19   564.04   580.09   615.38   641.50
                              666.28   691.20   707.92   754.93   777.26
                              809.07   895.53   938.35  1050.44  1123.19
                             1130.33  1148.96  1182.82  1187.64  1200.31
                             1212.03  1215.56  1223.64  1246.15  1298.41
                             1322.88  1351.28  1354.95  1364.52  1374.62
                             1391.10  1391.57  1433.23  1434.93  1480.34
                             1485.53  1494.96  1498.77  1527.74  1539.21
                             1552.61  1558.33  1591.22  1608.84  1614.45
                             1626.46  1646.69  1652.63  1684.59  1726.36
                             1730.21  1730.82  1735.28  1743.69  1771.90
                             1777.41  1782.58  1804.87  1823.00  1839.85
                             1852.32  1877.40  1909.20  1912.44  1921.05
                             1937.98  1965.48  1973.22  1992.99  2006.20
                             2019.65  2040.74  2046.77  2057.96  2063.92
                             2096.26  2107.23  2108.58  2141.11  2149.66
                             2153.19  2166.51  2174.34  2184.32  2189.50
                             2193.84  2195.14  2202.46  2212.04  2214.33
                             2244.55  2349.60  2401.95  4219.57  4256.66
                             4311.93  4332.44  4360.02  4366.25  4385.35
                             4394.09  4401.56  4408.14  4451.99  4454.02
                             4464.02  4480.52  4491.22  4494.52  4502.88
                             4510.28  4537.75  4545.19  4564.33  4594.06
                             4597.18  4632.35  4651.12  4666.04  4667.53
                             5021.13  5359.75

 Zero-point correction=                           0.450650 (Hartree/Particle)
 Thermal correction to Energy=                    0.474982
 Thermal correction to Enthalpy=                  0.475926
 Thermal correction to Gibbs Free Energy=         0.391598
 Sum of electronic and zero-point Energies=           -983.305636
 Sum of electronic and thermal Energies=              -983.281304
 Sum of electronic and thermal Enthalpies=            -983.280360
 Sum of electronic and thermal Free Energies=         -983.364688

                     E (Thermal)             CV                S
                      KCal/Mol        Cal/Mol-Kelvin    Cal/Mol-Kelvin
 Total                  298.056             89.625            177.483
 Electronic               0.000              0.000              0.000
 Translational            0.889              2.981             43.064
 Rotational               0.889              2.981             35.920
 Vibrational            296.278             83.663             98.499
 Vibration     1          0.593              1.986              7.137
 Vibration     2          0.593              1.986              6.849
 Vibration     3          0.593              1.985              6.373
 Vibration     4          0.594              1.984              5.790
 Vibration     5          0.594              1.983              5.678
 Vibration     6          0.595              1.980              5.153
 Vibration     7          0.595              1.977              4.803
 Vibration     8          0.598              1.969              4.208
 Vibration     9          0.599              1.966              4.012
 Vibration    10          0.600              1.963              3.917
 Vibration    11          0.609              1.934              3.125
 Vibration    12          0.612              1.922              2.929
 Vibration    13          0.615              1.911              2.780
 Vibration    14          0.619              1.899              2.626
 Vibration    15          0.623              1.887              2.510
 Vibration    16          0.638              1.840              2.135
 Vibration    17          0.644              1.822              2.022
 Vibration    18          0.654              1.790              1.855
 Vibration    19          0.658              1.776              1.786
 Vibration    20          0.671              1.739              1.635
 Vibration    21          0.677              1.719              1.564
 Vibration    22          0.688              1.687              1.457
 Vibration    23          0.706              1.634              1.306
 Vibration    24          0.713              1.614              1.256
 Vibration    25          0.728              1.572              1.159
 Vibration    26          0.754              1.502              1.019
 Vibration    27          0.759              1.487              0.992
 Vibration    28          0.769              1.463              0.951
 Vibration    29          0.789              1.410              0.866
 Vibration    30          0.805              1.370              0.808
 Vibration    31          0.821              1.332              0.757
 Vibration    32          0.837              1.294              0.709
 Vibration    33          0.848              1.268              0.678
 Vibration    34          0.880              1.195              0.599
 Vibration    35          0.895              1.161              0.565
 Vibration    36          0.918              1.113              0.519

 Optimization completed.
    -- Stationary point found.
 Normal termination of Gaussian 16 at Tue Mar  1 22:35:31 2022.

 ------------------------------------------
 #p b3lyp/6-31G(d) geom=allcheck guess=read
 ------------------------------------------

 Structure from the checkpoint file:  "94.n.pdb.xyz.mst.wat.chk"
 ------------
 94.n.pdb.xyz
 ------------
 Charge =  0 Multiplicity = 1

 SCF Done:  E(RB3LYP) =  -983.740229952     A.U. after   11 cycles
 Normal termination of Gaussian 16 at Tue Mar  1 22:38:28 2022.
 Gaussian 16:  ES64L-G16RevA.03 25-Dec-2016

 ----------------------------------------------------------------------
 #p b3lyp/6-31G(d) scrf=(iefpcm,read,solvent=water) geom=allcheck guess
 =read
 ----------------------------------------------------------------------

 Structure from the checkpoint file:  "94.n.pdb.xyz.mst.wat.chk"
 ------------
 94.n.pdb.xyz
 ------------
 Charge =  0 Multiplicity = 1

                         Standard orientation:
 ---------------------------------------------------------------------
 Center     Atomic      Atomic             Coordinates (Angstroms)
 Number     Number       Type             X           Y           Z
 ---------------------------------------------------------------------
      1          6           0       -7.605291    2.225273    0.698293
      2          6           0       -7.553822    1.022013   -0.246591
      3          6           0       -8.889738    0.279762   -0.259441
      4          7           0       -6.490000    0.087915    0.158864
      5          6           0       -5.142901    0.588012   -0.115672
      6          6           0       -4.106551   -0.493683    0.159114
      7          8           0       -4.366707   -1.570960   -0.739994
      8          6           0       -2.687268    0.025027   -0.025543
      9          8           0       -1.813712   -1.069364    0.265739
     10          6           0       -0.470424   -0.892392    0.081702
     11          6           0        0.339612   -2.011696    0.317470
     12          6           0        1.716564   -1.918450    0.153581
     13          6           0        2.328019   -0.720489   -0.248900
     14          6           0        3.829053   -0.622505   -0.386707
     15          6           0        4.506819   -0.261462    0.945902
     16          8           0        5.924536   -0.218120    0.858025
     17          6           0        6.421880    0.959423    0.223712
     18          6           0        7.919482    0.986940    0.351579
     19          6           0        8.739355    1.704788   -0.693405
     20          6           0        8.772192    0.197912   -0.612321
     21          6           0        1.502199    0.385087   -0.477360
     22          6           0        0.114917    0.313178   -0.317668
     23          1           0       -6.658043    2.772751    0.711662
     24          1           0       -8.387651    2.922946    0.384870
     25          1           0       -7.823028    1.898317    1.720970
     26          1           0       -7.360873    1.401580   -1.267903
     27          1           0       -8.868818   -0.561514   -0.960040
     28          1           0       -9.700647    0.948746   -0.561318
     29          1           0       -9.120684   -0.112670    0.736747
     30          1           0       -6.600588   -0.766449   -0.386320
     31          1           0       -4.935527    1.446209    0.530632
     32          1           0       -5.029424    0.934004   -1.159131
     33          1           0       -4.218439   -0.836575    1.197465
     34          1           0       -3.728198   -2.275488   -0.534310
     35          1           0       -2.533585    0.359514   -1.057939
     36          1           0       -2.483067    0.862561    0.651637
     37          1           0       -0.127078   -2.942859    0.620981
     38          1           0        2.330327   -2.796327    0.333748
     39          1           0        4.086411    0.133008   -1.136215
     40          1           0        4.243336   -1.576249   -0.730874
     41          1           0        4.273828   -1.023400    1.695669
     42          1           0        4.122579    0.702028    1.312786
     43          1           0        6.136260    0.979308   -0.837485
     44          1           0        5.971989    1.844258    0.700342
     45          1           0        8.279112    1.049437    1.375333
     46          1           0        9.610304    2.259483   -0.361478
     47          1           0        8.212320    2.157723   -1.528793
     48          1           0        8.264570   -0.362900   -1.391212
     49          1           0        9.668942   -0.278224   -0.229573
     50          1           0        1.944521    1.325876   -0.793121
     51          1           0       -0.496357    1.186615   -0.505804
 ---------------------------------------------------------------------

 SCF Done:  E(RB3LYP) =  -983.754898625     A.U. after   10 cycles

 The electronic state is 1-A.
 Alpha  occ. eigenvalues --  -19.18299 -19.14671 -19.14559 -14.31231 -10.25039
 Alpha  occ. eigenvalues --  -10.23912 -10.23801 -10.22869 -10.22850 -10.20875
 Alpha  occ. eigenvalues --  -10.20530 -10.19287 -10.19157 -10.19109 -10.19056
 Alpha  occ. eigenvalues --  -10.18951 -10.18811 -10.18594 -10.18406 -10.18403
 Alpha  occ. eigenvalues --  -10.17016 -10.16822  -1.06944  -1.02765  -1.01769
 Alpha  occ. eigenvalues --   -0.90067  -0.85756  -0.85503  -0.79183  -0.77603
 Alpha  occ. eigenvalues --   -0.75337  -0.74543  -0.72276  -0.69179  -0.68265
 Alpha  occ. eigenvalues --   -0.66370  -0.61732  -0.61280  -0.59717  -0.58868
 Alpha  occ. eigenvalues --   -0.57770  -0.56838  -0.56563  -0.54071  -0.52242
 Alpha  occ. eigenvalues --   -0.50516  -0.49189  -0.48656  -0.47977  -0.47164
 Alpha  occ. eigenvalues --   -0.46756  -0.46168  -0.45638  -0.44688  -0.44327
 Alpha  occ. eigenvalues --   -0.43979  -0.42507  -0.42140  -0.41206  -0.40166
 Alpha  occ. eigenvalues --   -0.39679  -0.38586  -0.38147  -0.38047  -0.37399
 Alpha  occ. eigenvalues --   -0.37220  -0.36375  -0.36108  -0.35486  -0.35097
 Alpha  occ. eigenvalues --   -0.34718  -0.34032  -0.33182  -0.32958  -0.32076
 Alpha  occ. eigenvalues --   -0.31887  -0.31136  -0.29156  -0.28645  -0.27379
 Alpha  occ. eigenvalues --   -0.25712  -0.25446  -0.22686  -0.21806
 Alpha virt. eigenvalues --   -0.00570   0.00782   0.08216   0.09176   0.09799
 Alpha virt. eigenvalues --    0.10152   0.10555   0.10793   0.10864   0.12132
 Alpha virt. eigenvalues --    0.12740   0.12839   0.13463   0.13894   0.14850

 Mulliken charges:
               1
     1  C   -0.450636
     2  C    0.070565
     3  C   -0.464779
     4  N   -0.614794
     5  C   -0.127074
     6  C    0.101498
     7  O   -0.676775
     8  C   -0.048166
     9  O   -0.551130
    10  C    0.373598
    11  C   -0.198277
    12  C   -0.202851
    13  C    0.151544
    14  C   -0.373817
    15  C   -0.020809
    16  O   -0.507178
    17  C   -0.030146
    18  C   -0.120987
    19  C   -0.338550
    20  C   -0.324449
    21  C   -0.213543
    22  C   -0.209683
    23  H    0.150879
    24  H    0.147023
    25  H    0.143596
    26  H    0.110853
    27  H    0.148591
    28  H    0.150900
    29  H    0.147303
    30  H    0.327446
    31  H    0.155193
    32  H    0.124601
    33  H    0.138002
    34  H    0.438410
    35  H    0.157770
    36  H    0.159405
    37  H    0.149074
    38  H    0.147060
    39  H    0.160189
    40  H    0.155740
    41  H    0.149431
    42  H    0.133007
    43  H    0.133132
    44  H    0.133782
    45  H    0.155128
    46  H    0.164085
    47  H    0.162632
    48  H    0.161411
    49  H    0.161996
    50  H    0.147127
    51  H    0.162670
 Sum of Mulliken charges =  -0.00000

 Dipole moment (field-independent basis, Debye):
    X=              0.3465    Y=              2.4156    Z=             -1.1859  Tot=              2.7132
 Quadrupole moment (field-independent basis, Debye-Ang):
   XX=           -140.0564   YY=           -126.0086   ZZ=           -138.1342
   XY=              2.0303   XZ=             -0.0978   YZ=             -1.5936

 Normal termination of Gaussian 16 at Tue Mar  1 22:42:16 2022.
