 Gaussian 16, Revision A.03,

 ----------------------------------------------------------------------
 #p b3lyp/6-31G(d) opt=(MaxStep=10,MaxCycles=1000) freq scf=(MaxCycle=2
 000,NoVarAcc,NoIncFock) scrf=(iefpcm,read,solvent=water)
 ----------------------------------------------------------------------

 ------------
 95.n.pdb.xyz
 ------------
 Symbolic Z-matrix:
 Charge =  0 Multiplicity = 1

 SCF Done:  E(RB3LYP) =  -1247.60636308     A.U. after   13 cycles
 SCF Done:  E(RB3LYP) =  -1247.60932058     A.U. after   10 cycles
 SCF Done:  E(RB3LYP) =  -1247.60650995     A.U. after   10 cycles
 SCF Done:  E(RB3LYP) =  -1247.60994799     A.U. after   10 cycles
 SCF Done:  E(RB3LYP) =  -1247.61038549     A.U. after    9 cycles
 SCF Done:  E(RB3LYP) =  -1247.61038315     A.U. after    9 cycles
 SCF Done:  E(RB3LYP) =  -1247.61041927     A.U. after    9 cycles
 SCF Done:  E(RB3LYP) =  -1247.61044139     A.U. after    8 cycles
 SCF Done:  E(RB3LYP) =  -1247.61044722     A.U. after    8 cycles
 SCF Done:  E(RB3LYP) =  -1247.61044481     A.U. after    7 cycles
 SCF Done:  E(RB3LYP) =  -1247.61044153     A.U. after    7 cycles
 Optimization completed.
    -- Stationary point found.
 Normal termination of Gaussian 16 at Tue Mar  1 21:55:19 2022.

 --------------------------------------------------------------------
 #P Geom=AllCheck Guess=TCheck SCRF=Check GenChk RB3LYP/6-31G(d) Freq
 --------------------------------------------------------------------

 Structure from the checkpoint file:  "95.n.pdb.xyz.mst.wat.chk"
 ------------
 95.n.pdb.xyz
 ------------
 Charge =  0 Multiplicity = 1

 SCF Done:  E(RB3LYP) =  -1247.61044153     A.U. after    1 cycles

  Exact polarizability: 327.635  -3.867 287.600 -13.712   2.828 159.076
 Approx polarizability: 345.596  -1.236 325.003 -15.059   0.754 185.923

                      1                      2                      3
                      A                      A                      A
 Frequencies --     35.1824                77.8817                90.8456
 Red. masses --      6.6647                 3.8460                 4.2593
 Frc consts  --      0.0049                 0.0137                 0.0207
 IR Inten    --      0.2828                 0.5494                 0.1667

                      4                      5                      6
                      A                      A                      A
 Frequencies --    113.0821               126.6194               164.8790
 Red. masses --      6.3356                 5.2806                 4.5267
 Frc consts  --      0.0477                 0.0499                 0.0725
 IR Inten    --      1.8759                 1.3385                 0.4832

                      7                      8                      9
                      A                      A                      A
 Frequencies --    181.5993               235.4743               267.6365
 Red. masses --      4.1999                 3.7716                 5.7782
 Frc consts  --      0.0816                 0.1232                 0.2439
 IR Inten    --      3.6288                 2.7931                 2.4681

                     10                     11                     12
                      A                      A                      A
 Frequencies --    278.1861               284.0606               303.7385
 Red. masses --      3.4173                 3.2019                 7.4101
 Frc consts  --      0.1558                 0.1522                 0.4028
 IR Inten    --      0.6028                 4.5222                 2.4115

                     13                     14                     15
                      A                      A                      A
 Frequencies --    329.8311               360.3302               390.0132
 Red. masses --      5.0687                 2.2873                 5.2849
 Frc consts  --      0.3249                 0.1750                 0.4736
 IR Inten    --      6.1136                 5.2912                 1.1387

                     16                     17                     18
                      A                      A                      A
 Frequencies --    411.9135               434.3345               465.4576
 Red. masses --      3.7459                 4.4734                 3.8759
 Frc consts  --      0.3745                 0.4972                 0.4948
 IR Inten    --      0.6264                 8.8459                 0.4550

                     19                     20                     21
                      A                      A                      A
 Frequencies --    482.2464               511.3833               517.1044
 Red. masses --      3.8009                 4.2625                 2.2070
 Frc consts  --      0.5208                 0.6568                 0.3477
 IR Inten    --     10.3913                 9.9096                 5.6575

                     22                     23                     24
                      A                      A                      A
 Frequencies --    539.8068               565.9611               573.3923
 Red. masses --      4.4033                 4.1295                 4.9175
 Frc consts  --      0.7560                 0.7793                 0.9526
 IR Inten    --      1.9025                 8.9605                 0.7368

                     25                     26                     27
                      A                      A                      A
 Frequencies --    624.6412               655.9848               682.9276
 Red. masses --      5.0133                 6.5370                 4.0246
 Frc consts  --      1.1525                 1.6574                 1.1059
 IR Inten    --      1.9558                 5.8149                18.4572

                     28                     29                     30
                      A                      A                      A
 Frequencies --    688.2760               728.8042               743.3021
 Red. masses --      4.6928                 3.2273                 3.2912
 Frc consts  --      1.3098                 1.0100                 1.0714
 IR Inten    --     13.7280                11.9748                36.1679

                     31                     32                     33
                      A                      A                      A
 Frequencies --    757.8509               782.1226               785.3726
 Red. masses --      2.7747                 2.5024                 1.4878
 Frc consts  --      0.9389                 0.9019                 0.5407
 IR Inten    --    103.3987                42.4755                54.6901

                     34                     35                     36
                      A                      A                      A
 Frequencies --    808.8737               824.3865               841.0178
 Red. masses --      2.6910                 2.7830                 1.7080
 Frc consts  --      1.0374                 1.1144                 0.7118
 IR Inten    --     13.3930                95.8764                47.6651

                     37                     38                     39
                      A                      A                      A
 Frequencies --    872.4912               890.0985               893.6688
 Red. masses --      3.2374                 1.5485                 2.0631
 Frc consts  --      1.4520                 0.7228                 0.9708
 IR Inten    --     69.6899                 5.6980                 5.9173

                     40                     41                     42
                      A                      A                      A
 Frequencies --    904.8589               925.0657               940.0135
 Red. masses --      1.5985                 2.6807                 1.8293
 Frc consts  --      0.7711                 1.3516                 0.9524
 IR Inten    --     18.0305                12.2852                 9.7074

                     43                     44                     45
                      A                      A                      A
 Frequencies --    953.2570               957.1347               961.9656
 Red. masses --      2.5333                 1.3094                 1.3687
 Frc consts  --      1.3563                 0.7068                 0.7462
 IR Inten    --     10.7469                 0.2576                 8.4015

                     46                     47                     48
                      A                      A                      A
 Frequencies --    993.0884              1026.1699              1033.0089
 Red. masses --      1.2508                 2.7750                 2.1508
 Frc consts  --      0.7268                 1.7217                 1.3523
 IR Inten    --      0.2107                 5.2595                10.3765

                     49                     50                     51
                      A                      A                      A
 Frequencies --   1069.4142              1098.4887              1108.7797
 Red. masses --      2.2010                 2.0199                 2.1973
 Frc consts  --      1.4831                 1.4361                 1.5916
 IR Inten    --      9.4367                 9.4258                12.3498

                     52                     53                     54
                      A                      A                      A
 Frequencies --   1116.8912              1123.7661              1132.9852
 Red. masses --      2.3028                 2.1081                 1.5592
 Frc consts  --      1.6925                 1.5686                 1.1793
 IR Inten    --     43.1427                38.4902                62.2352

                     55                     56                     57
                      A                      A                      A
 Frequencies --   1156.1002              1181.0839              1196.2521
 Red. masses --      2.7007                 1.2440                 1.9860
 Frc consts  --      2.1268                 1.0224                 1.6745
 IR Inten    --     24.4680                 9.5774                89.7351

                     58                     59                     60
                      A                      A                      A
 Frequencies --   1203.0770              1211.1748              1230.4935
 Red. masses --      1.6265                 1.7685                 2.6789
 Frc consts  --      1.3871                 1.5285                 2.3898
 IR Inten    --     12.8502                14.2371                 1.5123

                     61                     62                     63
                      A                      A                      A
 Frequencies --   1245.1311              1264.0373              1271.0929
 Red. masses --      1.3425                 1.4954                 3.1229
 Frc consts  --      1.2263                 1.4077                 2.9728
 IR Inten    --     21.0444               101.6517               498.0029

                     64                     65                     66
                      A                      A                      A
 Frequencies --   1295.0581              1312.1501              1320.1239
 Red. masses --      1.4908                 1.3940                 1.4234
 Frc consts  --      1.4732                 1.4141                 1.4615
 IR Inten    --     12.5554                 6.8494                 0.6434

                     67                     68                     69
                      A                      A                      A
 Frequencies --   1333.8342              1345.0126              1351.2907
 Red. masses --      1.5276                 3.8501                 4.0990
 Frc consts  --      1.6013                 4.1037                 4.4098
 IR Inten    --     11.5095                 1.9405                13.6891

                     70                     71                     72
                      A                      A                      A
 Frequencies --   1364.0653              1373.6834              1387.1034
 Red. masses --      1.5712                 1.4454                 1.4133
 Frc consts  --      1.7225                 1.6070                 1.6022
 IR Inten    --      0.2046                10.1905                 9.1356

                     73                     74                     75
                      A                      A                      A
 Frequencies --   1401.3571              1417.0524              1435.6156
 Red. masses --      1.4537                 1.3586                 3.4569
 Frc consts  --      1.6820                 1.6074                 4.1977
 IR Inten    --     18.8172                23.7714                88.0655

                     76                     77                     78
                      A                      A                      A
 Frequencies --   1493.5862              1494.6176              1502.3293
 Red. masses --      2.3043                 1.0910                 1.1189
 Frc consts  --      3.0287                 1.4360                 1.4879
 IR Inten    --     75.9753                 3.7539                12.1321

                     79                     80                     81
                      A                      A                      A
 Frequencies --   1508.4982              1515.6869              1520.8759
 Red. masses --      1.1412                 1.8423                 1.6554
 Frc consts  --      1.5300                 2.4936                 2.2560
 IR Inten    --      9.4337               294.8753                57.3088

                     82                     83                     84
                      A                      A                      A
 Frequencies --   1538.9698              1619.5550              1636.8721
 Red. masses --      1.9421                 7.0351                 6.0156
 Frc consts  --      2.7101                10.8721                 9.4964
 IR Inten    --     52.0788                 5.1819                 5.3552

                     85                     86                     87
                      A                      A                      A
 Frequencies --   1650.4687              1662.4454              3007.3173
 Red. masses --      7.2082                 6.4383                 1.0819
 Frc consts  --     11.5689                10.4837                 5.7651
 IR Inten    --      5.1847                 4.9163                40.1564

                     88                     89                     90
                      A                      A                      A
 Frequencies --   3032.7835              3037.4518              3052.3089
 Red. masses --      1.0680                 1.0800                 1.0695
 Frc consts  --      5.7877                 5.8708                 5.8709
 IR Inten    --     83.6049                13.7925               149.9455

                     91                     92                     93
                      A                      A                      A
 Frequencies --   3058.6843              3102.8583              3106.5130
 Red. masses --      1.0614                 1.0953                 1.1038
 Frc consts  --      5.8507                 6.2133                 6.2760
 IR Inten    --     29.6705                83.3015                85.7802

                     94                     95                     96
                      A                      A                      A
 Frequencies --   3108.1401              3207.6543              3219.4751
 Red. masses --      1.0989                 1.0861                 1.0908
 Frc consts  --      6.2548                 6.5844                 6.6616
 IR Inten    --     49.4015                 1.5203                28.0196

                     97                     98                     99
                      A                      A                      A
 Frequencies --   3225.7349              3230.0083              3230.9311
 Red. masses --      1.0904                 1.0889                 1.0945
 Frc consts  --      6.6849                 6.6936                 6.7319
 IR Inten    --      7.5687                 2.9637                37.8256

                    100                    101                    102
                      A                      A                      A
 Frequencies --   3239.7802              3243.8317              3521.9006
 Red. masses --      1.0928                 1.0957                 1.0736
 Frc consts  --      6.7583                 6.7931                 7.8460
 IR Inten    --     32.3663                 7.7139                 1.1627

 - Thermochemistry -
 -------------------
 Temperature   298.150 Kelvin.  Pressure   1.00000 Atm.
 Atom     1 has atomic number 17 and mass  34.96885

 Molecular mass:   285.09204 amu.
 Principal axes and moments of inertia in atomic units:
                           1         2         3
     Eigenvalues --  3534.882508101.96764**********
           X            0.99989   0.01328  -0.00587
           Y           -0.01325   0.99990   0.00493
           Z            0.00593  -0.00486   0.99997
 This molecule is an asymmetric top.
 Rotational symmetry number  1.
 Warning -- assumption of classical behavior for rotation
           may cause significant error
 Rotational temperatures (Kelvin)      0.02450     0.01069     0.00811
 Rotational constants (GHZ):           0.51055     0.22275     0.16902
 Zero-point vibrational energy     775956.1 (Joules/Mol)
                                  185.45797 (Kcal/Mol)
 Warning -- explicit consideration of  24 degrees of freedom as
           vibrations may cause significant error
 Vibrational temperatures:     50.62   112.05   130.71   162.70   182.18
          (Kelvin)            237.22   261.28   338.80   385.07   400.25
                              408.70   437.01   474.55   518.43   561.14
                              592.65   624.91   669.69   693.84   735.77
                              744.00   776.66   814.29   824.98   898.72
                              943.82   982.58   990.28  1048.59  1069.45
                             1090.38  1125.30  1129.98  1163.79  1186.11
                             1210.04  1255.32  1280.65  1285.79  1301.89
                             1330.96  1352.47  1371.52  1377.10  1384.05
                             1428.83  1476.43  1486.27  1538.65  1580.48
                             1595.29  1606.96  1616.85  1630.11  1663.37
                             1699.32  1721.14  1730.96  1742.61  1770.41
                             1791.47  1818.67  1828.82  1863.30  1887.89
                             1899.36  1919.09  1935.17  1944.21  1962.59
                             1976.42  1995.73  2016.24  2038.82  2065.53
                             2148.94  2150.42  2161.52  2170.39  2180.74
                             2188.20  2214.23  2330.18  2355.09  2374.66
                             2391.89  4326.86  4363.50  4370.22  4391.59
                             4400.76  4464.32  4469.58  4471.92  4615.10
                             4632.11  4641.11  4647.26  4648.59  4661.32
                             4667.15  5067.23

 Zero-point correction=                           0.295546 (Hartree/Particle)
 Thermal correction to Energy=                    0.310924
 Thermal correction to Enthalpy=                  0.311869
 Thermal correction to Gibbs Free Energy=         0.252925
 Sum of electronic and zero-point Energies=          -1247.314895
 Sum of electronic and thermal Energies=             -1247.299517
 Sum of electronic and thermal Enthalpies=           -1247.298573
 Sum of electronic and thermal Free Energies=        -1247.357516

                     E (Thermal)             CV                S
                      KCal/Mol        Cal/Mol-Kelvin    Cal/Mol-Kelvin
 Total                  195.108             63.903            124.057
 Electronic               0.000              0.000              0.000
 Translational            0.889              2.981             42.841
 Rotational               0.889              2.981             34.080
 Vibrational            193.331             57.942             47.137
 Vibration     1          0.594              1.982              5.513
 Vibration     2          0.599              1.964              3.944
 Vibration     3          0.602              1.956              3.642
 Vibration     4          0.607              1.939              3.215
 Vibration     5          0.611              1.927              2.997
 Vibration     6          0.623              1.886              2.493
 Vibration     7          0.630              1.865              2.312
 Vibration     8          0.655              1.787              1.837
 Vibration     9          0.673              1.733              1.611
 Vibration    10          0.679              1.714              1.545
 Vibration    11          0.682              1.703              1.509
 Vibration    12          0.695              1.667              1.396
 Vibration    13          0.713              1.616              1.261
 Vibration    14          0.735              1.554              1.121
 Vibration    15          0.758              1.492              1.000
 Vibration    16          0.776              1.444              0.920
 Vibration    17          0.795              1.395              0.845
 Vibration    18          0.823              1.327              0.750
 Vibration    19          0.838              1.289              0.704
 Vibration    20          0.866              1.225              0.630
 Vibration    21          0.872              1.212              0.617
 Vibration    22          0.895              1.162              0.566
 Vibration    23          0.922              1.105              0.512
 Vibration    24          0.930              1.089              0.498

 Optimization completed.
    -- Stationary point found.
 Normal termination of Gaussian 16 at Tue Mar  1 22:45:07 2022.

 ------------------------------------------
 #p b3lyp/6-31G(d) geom=allcheck guess=read
 ------------------------------------------

 Structure from the checkpoint file:  "95.n.pdb.xyz.mst.wat.chk"
 ------------
 95.n.pdb.xyz
 ------------
 Charge =  0 Multiplicity = 1

 SCF Done:  E(RB3LYP) =  -1247.60157488     A.U. after   11 cycles
 Normal termination of Gaussian 16 at Tue Mar  1 22:48:29 2022.
 Gaussian 16:  ES64L-G16RevA.03 25-Dec-2016

 ----------------------------------------------------------------------
 #p b3lyp/6-31G(d) scrf=(iefpcm,read,solvent=water) geom=allcheck guess
 =read
 ----------------------------------------------------------------------

 Structure from the checkpoint file:  "95.n.pdb.xyz.mst.wat.chk"
 ------------
 95.n.pdb.xyz
 ------------
 Charge =  0 Multiplicity = 1

                         Standard orientation:
 ---------------------------------------------------------------------
 Center     Atomic      Atomic             Coordinates (Angstroms)
 Number     Number       Type             X           Y           Z
 ---------------------------------------------------------------------
      1         17           0       -4.988870    0.458232   -0.546638
      2          6           0       -3.408930   -0.193821   -0.110274
      3          6           0       -3.280243   -1.553849    0.160720
      4          6           0       -2.021695   -2.032698    0.502866
      5          6           0       -0.918323   -1.176345    0.578404
      6          8           0        0.251913   -1.785216    1.001538
      7          6           0        1.425655   -1.603344    0.279488
      8          6           0        1.972553   -2.726493   -0.335264
      9          6           0        3.205359   -2.623955   -0.979347
     10          6           0        3.875720   -1.401201   -0.986163
     11          6           0        3.310369   -0.288953   -0.358594
     12          6           0        2.067062   -0.358066    0.283807
     13          6           0        1.414185    0.787783    1.037038
     14          6           0        2.305788    2.045155    1.196080
     15          7           0        2.475173    2.889662    0.007879
     16          6           0        1.198523    3.215127   -0.637073
     17          6           0        0.301198    1.996699   -0.896090
     18          6           0        0.059997    1.243642    0.429245
     19          6           0       -1.040276    0.195920    0.315481
     20          6           0       -2.319095    0.661846   -0.034470
     21          1           0       -4.133360   -2.218317    0.102093
     22          1           0       -1.870261   -3.083593    0.719751
     23          1           0        1.431130   -3.664769   -0.292212
     24          1           0        3.637571   -3.493140   -1.463468
     25          1           0        4.841239   -1.309441   -1.472074
     26          1           0        3.866690    0.639686   -0.349109
     27          1           0        1.205062    0.416052    2.048620
     28          1           0        3.297238    1.757135    1.557759
     29          1           0        1.850629    2.665363    1.978179
     30          1           0        3.056641    2.408490   -0.674425
     31          1           0        1.413371    3.742508   -1.571377
     32          1           0        0.658636    3.917625    0.012918
     33          1           0        0.768860    1.326454   -1.627442
     34          1           0       -0.653242    2.324787   -1.320201
     35          1           0       -0.330179    1.992181    1.134268
     36          1           0       -2.457840    1.718450   -0.233007
 ---------------------------------------------------------------------

 SCF Done:  E(RB3LYP) =  -1247.60936032     A.U. after   10 cycles

 The electronic state is 1-A.
 Alpha  occ. eigenvalues -- -101.55360 -19.18719 -14.31768 -10.25846 -10.25338
 Alpha  occ. eigenvalues --  -10.24948 -10.21147 -10.20731 -10.20570 -10.20445
 Alpha  occ. eigenvalues --  -10.20367 -10.20312 -10.20185 -10.20024 -10.19791
 Alpha  occ. eigenvalues --  -10.19526 -10.19471 -10.19345 -10.19196 -10.18046
 Alpha  occ. eigenvalues --   -9.46984  -7.23366  -7.22418  -7.22391  -1.07727
 Alpha  occ. eigenvalues --   -0.90972  -0.89423  -0.86210  -0.84410  -0.81018
 Alpha  occ. eigenvalues --   -0.77671  -0.76011  -0.74930  -0.73511  -0.71339
 Alpha  occ. eigenvalues --   -0.65811  -0.64606  -0.61918  -0.61388  -0.60252
 Alpha  occ. eigenvalues --   -0.57996  -0.57288  -0.53117  -0.50394  -0.49851
 Alpha  occ. eigenvalues --   -0.49146  -0.47946  -0.46826  -0.46129  -0.45206
 Alpha  occ. eigenvalues --   -0.44571  -0.44139  -0.43147  -0.43068  -0.41136
 Alpha  occ. eigenvalues --   -0.40774  -0.39428  -0.38816  -0.38455  -0.38349
 Alpha  occ. eigenvalues --   -0.37515  -0.36146  -0.35835  -0.35294  -0.34397
 Alpha  occ. eigenvalues --   -0.33300  -0.32565  -0.32126  -0.31663  -0.30290
 Alpha  occ. eigenvalues --   -0.25858  -0.25505  -0.24595  -0.23125  -0.22183
 Alpha virt. eigenvalues --   -0.02071  -0.00889  -0.00706  -0.00181   0.02549
 Alpha virt. eigenvalues --    0.08442   0.09277   0.10329   0.11597   0.13076
 Alpha virt. eigenvalues --    0.13163   0.13874   0.14479   0.15303   0.15824

 Mulliken charges:
               1
     1  Cl  -0.050396
     2  C   -0.069870
     3  C   -0.152970
     4  C   -0.176552
     5  C    0.262528
     6  O   -0.589241
     7  C    0.263060
     8  C   -0.172373
     9  C   -0.161310
    10  C   -0.143673
    11  C   -0.238451
    12  C    0.160949
    13  C   -0.184546
    14  C   -0.174800
    15  N   -0.592718
    16  C   -0.150384
    17  C   -0.273624
    18  C   -0.183328
    19  C    0.176710
    20  C   -0.216131
    21  H    0.174553
    22  H    0.165029
    23  H    0.155299
    24  H    0.155430
    25  H    0.151799
    26  H    0.147163
    27  H    0.158690
    28  H    0.156253
    29  H    0.151298
    30  H    0.334834
    31  H    0.149770
    32  H    0.143798
    33  H    0.145090
    34  H    0.147814
    35  H    0.158927
    36  H    0.171373
 Sum of Mulliken charges =  -0.00000

 Dipole moment (field-independent basis, Debye):
    X=              2.2833    Y=             -0.7336    Z=             -0.8878  Tot=              2.5573
 Quadrupole moment (field-independent basis, Debye-Ang):
   XX=           -127.8488   YY=           -118.8936   ZZ=           -123.4476
   XY=             -1.4480   XZ=             -6.2059   YZ=              1.1461

 Normal termination of Gaussian 16 at Tue Mar  1 22:52:09 2022.
