 Gaussian 16, Revision A.03,

 ----------------------------------------------------------------------
 #p b3lyp/6-31G(d) opt=(MaxStep=10,MaxCycles=1000) freq scf=(MaxCycle=2
 000,NoVarAcc,NoIncFock) scrf=(iefpcm,read,solvent=water)
 ----------------------------------------------------------------------

 ------------
 97.n.pdb.xyz
 ------------
 Symbolic Z-matrix:
 Charge =  0 Multiplicity = 1

 SCF Done:  E(RB3LYP) =  -498.978557679     A.U. after   12 cycles
 SCF Done:  E(RB3LYP) =  -498.981358152     A.U. after   10 cycles
 SCF Done:  E(RB3LYP) =  -498.979205171     A.U. after   10 cycles
 SCF Done:  E(RB3LYP) =  -498.982046962     A.U. after    9 cycles
 SCF Done:  E(RB3LYP) =  -498.981976048     A.U. after    9 cycles
 SCF Done:  E(RB3LYP) =  -498.981978669     A.U. after    9 cycles
 SCF Done:  E(RB3LYP) =  -498.982043679     A.U. after    9 cycles
 SCF Done:  E(RB3LYP) =  -498.982047162     A.U. after    8 cycles
 SCF Done:  E(RB3LYP) =  -498.981974942     A.U. after    9 cycles
 SCF Done:  E(RB3LYP) =  -498.981987861     A.U. after    8 cycles
 SCF Done:  E(RB3LYP) =  -498.981990237     A.U. after    9 cycles
 SCF Done:  E(RB3LYP) =  -498.982043581     A.U. after    9 cycles
 SCF Done:  E(RB3LYP) =  -498.982043897     A.U. after    7 cycles
 SCF Done:  E(RB3LYP) =  -498.981992458     A.U. after    9 cycles
 SCF Done:  E(RB3LYP) =  -498.982043762     A.U. after    9 cycles
 SCF Done:  E(RB3LYP) =  -498.982043974     A.U. after    7 cycles
 SCF Done:  E(RB3LYP) =  -498.981992755     A.U. after    9 cycles
 Optimization completed.
    -- Stationary point found.
 Normal termination of Gaussian 16 at Wed Mar  2 05:12:38 2022.

 --------------------------------------------------------------------
 #P Geom=AllCheck Guess=TCheck SCRF=Check GenChk RB3LYP/6-31G(d) Freq
 --------------------------------------------------------------------

 Structure from the checkpoint file:  "97.n.pdb.xyz.mst.wat.chk"
 ------------
 97.n.pdb.xyz
 ------------
 Charge =  0 Multiplicity = 1

 SCF Done:  E(RB3LYP) =  -498.981992755     A.U. after    1 cycles

  Exact polarizability: 186.310  -5.870 146.962   9.547  15.922 109.590
 Approx polarizability: 195.685  -4.221 170.529  12.512  23.986 123.917

                      1                      2                      3
                      A                      A                      A
 Frequencies --     41.9048                89.8543               125.1746
 Red. masses --      3.7233                 2.7935                 1.9502
 Frc consts  --      0.0039                 0.0133                 0.0180
 IR Inten    --      3.3368                 0.0573                 0.4885

                      4                      5                      6
                      A                      A                      A
 Frequencies --    139.8402               179.7856               204.4091
 Red. masses --      3.1807                 1.9989                 1.3027
 Frc consts  --      0.0366                 0.0381                 0.0321
 IR Inten    --      3.3478                 0.8626                 1.0183

                      7                      8                      9
                      A                      A                      A
 Frequencies --    257.4736               315.1900               376.0844
 Red. masses --      2.9290                 4.1268                 3.2250
 Frc consts  --      0.1144                 0.2416                 0.2687
 IR Inten    --      0.8879                 1.2888                 4.2584

                     10                     11                     12
                      A                      A                      A
 Frequencies --    411.2458               424.3187               481.6528
 Red. masses --      3.1167                 2.7042                 3.3245
 Frc consts  --      0.3106                 0.2869                 0.4544
 IR Inten    --      3.8289                 1.2646                 1.0766

                     13                     14                     15
                      A                      A                      A
 Frequencies --    607.4577               632.3185               671.5718
 Red. masses --      2.3864                 7.0566                 2.7007
 Frc consts  --      0.5188                 1.6623                 0.7177
 IR Inten    --      9.2777                10.5634                 3.1954

                     16                     17                     18
                      A                      A                      A
 Frequencies --    685.3977               733.1930               777.5638
 Red. masses --      5.8872                 2.0806                 1.9874
 Frc consts  --      1.6295                 0.6590                 0.7080
 IR Inten    --      1.7273                34.3288                17.4335

                     19                     20                     21
                      A                      A                      A
 Frequencies --    798.6148               842.3600               881.3899
 Red. masses --      1.9718                 1.8508                 2.5481
 Frc consts  --      0.7409                 0.7738                 1.1663
 IR Inten    --     17.6336                11.4197                12.7023

                     22                     23                     24
                      A                      A                      A
 Frequencies --    904.8716               915.7384               957.9954
 Red. masses --      2.8125                 2.2101                 1.3469
 Frc consts  --      1.3568                 1.0920                 0.7283
 IR Inten    --     11.1569                 7.6415                 1.8118

                     25                     26                     27
                      A                      A                      A
 Frequencies --    970.8337               978.7018              1010.0875
 Red. masses --      2.4514                 1.4831                 1.3788
 Frc consts  --      1.3613                 0.8370                 0.8288
 IR Inten    --     20.5516                 6.3302                 0.2914

                     28                     29                     30
                      A                      A                      A
 Frequencies --   1012.9787              1035.0130              1044.8866
 Red. masses --      2.5554                 2.6044                 4.2459
 Frc consts  --      1.5449                 1.6438                 2.7312
 IR Inten    --      6.4411                38.3122                 5.6980

                     31                     32                     33
                      A                      A                      A
 Frequencies --   1073.7473              1082.4707              1104.0873
 Red. masses --      2.3395                 2.1363                 1.8787
 Frc consts  --      1.5892                 1.4748                 1.3493
 IR Inten    --     10.7075                16.3765                11.6736

                     34                     35                     36
                      A                      A                      A
 Frequencies --   1144.6245              1164.9672              1204.9405
 Red. masses --      1.4235                 1.5291                 1.7071
 Frc consts  --      1.0988                 1.2227                 1.4603
 IR Inten    --      9.4713                18.5575                11.5620

                     37                     38                     39
                      A                      A                      A
 Frequencies --   1216.8328              1229.0208              1254.8446
 Red. masses --      1.6124                 1.5057                 1.3718
 Frc consts  --      1.4067                 1.3400                 1.2727
 IR Inten    --      5.3842                 7.7763                 1.5881

                     40                     41                     42
                      A                      A                      A
 Frequencies --   1257.7621              1287.1733              1305.3350
 Red. masses --      1.9604                 1.3138                 2.7062
 Frc consts  --      1.8272                 1.2825                 2.7168
 IR Inten    --      6.9425                 8.6239                 2.1845

                     43                     44                     45
                      A                      A                      A
 Frequencies --   1317.6376              1329.8423              1364.7809
 Red. masses --      1.9093                 1.3907                 1.3025
 Frc consts  --      1.9530                 1.4491                 1.4294
 IR Inten    --      6.0402                 1.0991                11.3895

                     46                     47                     48
                      A                      A                      A
 Frequencies --   1372.7393              1393.8980              1412.7435
 Red. masses --      1.3849                 1.2548                 1.4647
 Frc consts  --      1.5376                 1.4365                 1.7223
 IR Inten    --      3.2856                 9.5838                28.5101

                     49                     50                     51
                      A                      A                      A
 Frequencies --   1454.4892              1466.2523              1499.9225
 Red. masses --      1.1781                 2.2190                 1.0579
 Frc consts  --      1.4684                 2.8107                 1.4023
 IR Inten    --      3.2426                61.9948                12.1230

                     52                     53                     54
                      A                      A                      A
 Frequencies --   1510.2619              1513.4565              1526.7089
 Red. masses --      1.0845                 1.0918                 1.0758
 Frc consts  --      1.4574                 1.4734                 1.4774
 IR Inten    --      0.3430                 3.8812                 3.7885

                     55                     56                     57
                      A                      A                      A
 Frequencies --   1530.4675              1530.9063              1630.0073
 Red. masses --      1.3308                 1.5706                 5.0960
 Frc consts  --      1.8366                 2.1687                 7.9773
 IR Inten    --     14.4539                10.9445                25.2352

                     58                     59                     60
                      A                      A                      A
 Frequencies --   1651.8978              2996.5053              3024.8531
 Red. masses --      5.4010                 1.0565                 1.0830
 Frc consts  --      8.6833                 5.5891                 5.8381
 IR Inten    --     11.0238               110.4620                38.9377

                     61                     62                     63
                      A                      A                      A
 Frequencies --   3061.3642              3083.7173              3095.0659
 Red. masses --      1.0679                 1.0598                 1.0620
 Frc consts  --      5.8965                 5.9375                 5.9940
 IR Inten    --     83.1502                46.1614                54.8465

                     64                     65                     66
                      A                      A                      A
 Frequencies --   3105.6924              3119.6960              3131.2750
 Red. masses --      1.0771                 1.1043                 1.1007
 Frc consts  --      6.1208                 6.3325                 6.3589
 IR Inten    --     62.2847                14.1759                17.6985

                     67                     68                     69
                      A                      A                      A
 Frequencies --   3141.1091              3149.5173              3189.5303
 Red. masses --      1.1061                 1.1034                 1.0889
 Frc consts  --      6.4299                 6.4486                 6.5267
 IR Inten    --    121.1874                53.2913                45.3142

                     70                     71                     72
                      A                      A                      A
 Frequencies --   3206.2829              3214.0256              3232.3649
 Red. masses --      1.0897                 1.0893                 1.0965
 Frc consts  --      6.6005                 6.6299                 6.7498
 IR Inten    --     36.2158                15.6290                26.7549

 - Thermochemistry -
 -------------------
 Temperature   298.150 Kelvin.  Pressure   1.00000 Atm.
 Atom     1 has atomic number  6 and mass  12.00000

 Molecular mass:   162.11570 amu.
 Principal axes and moments of inertia in atomic units:
                           1         2         3
     Eigenvalues --   805.210463049.293913405.80843
           X            0.99990  -0.01361  -0.00388
           Y            0.01354   0.99975  -0.01765
           Z            0.00412   0.01759   0.99984
 This molecule is an asymmetric top.
 Rotational symmetry number  1.
 Warning -- assumption of classical behavior for rotation
           may cause significant error
 Rotational temperatures (Kelvin)      0.10757     0.02840     0.02543
 Rotational constants (GHZ):           2.24133     0.59186     0.52990
 Zero-point vibrational energy     598675.5 (Joules/Mol)
                                  143.08688 (Kcal/Mol)
 Warning -- explicit consideration of  13 degrees of freedom as
           vibrations may cause significant error
 Vibrational temperatures:     60.29   129.28   180.10   201.20   258.67
          (Kelvin)            294.10   370.45   453.49   541.10   591.69
                              610.50   692.99   874.00   909.77   966.24
                              986.13  1054.90  1118.74  1149.03  1211.97
                             1268.12  1301.91  1317.54  1378.34  1396.81
                             1408.13  1453.29  1457.45  1489.15  1503.36
                             1544.88  1557.43  1588.54  1646.86  1676.13
                             1733.64  1750.75  1768.29  1805.44  1809.64
                             1851.96  1878.09  1895.79  1913.35  1963.62
                             1975.07  2005.51  2032.62  2092.69  2109.61
                             2158.05  2172.93  2177.53  2196.59  2202.00
                             2202.63  2345.22  2376.71  4311.30  4352.09
                             4404.62  4436.78  4453.11  4468.40  4488.55
                             4505.21  4519.36  4531.45  4589.02  4613.13
                             4624.27  4650.65

 Zero-point correction=                           0.228023 (Hartree/Particle)
 Thermal correction to Energy=                    0.238597
 Thermal correction to Enthalpy=                  0.239541
 Thermal correction to Gibbs Free Energy=         0.191299
 Sum of electronic and zero-point Energies=           -498.753969
 Sum of electronic and thermal Energies=              -498.743396
 Sum of electronic and thermal Enthalpies=            -498.742452
 Sum of electronic and thermal Free Energies=         -498.790694

                     E (Thermal)             CV                S
                      KCal/Mol        Cal/Mol-Kelvin    Cal/Mol-Kelvin
 Total                  149.722             41.036            101.534
 Electronic               0.000              0.000              0.000
 Translational            0.889              2.981             41.158
 Rotational               0.889              2.981             30.504
 Vibrational            147.944             35.075             29.872
 Vibration     1          0.595              1.980              5.167
 Vibration     2          0.602              1.956              3.663
 Vibration     3          0.610              1.928              3.019
 Vibration     4          0.615              1.913              2.806
 Vibration     5          0.629              1.867              2.331
 Vibration     6          0.640              1.834              2.093
 Vibration     7          0.667              1.750              1.679
 Vibration     8          0.703              1.645              1.335
 Vibration     9          0.747              1.521              1.055
 Vibration    10          0.775              1.446              0.922
 Vibration    11          0.786              1.417              0.877
 Vibration    12          0.838              1.291              0.706
 Vibration    13          0.966              1.016              0.437

 Optimization completed.
    -- Stationary point found.
 Normal termination of Gaussian 16 at Wed Mar  2 05:28:04 2022.

 ------------------------------------------
 #p b3lyp/6-31G(d) geom=allcheck guess=read
 ------------------------------------------

 Structure from the checkpoint file:  "97.n.pdb.xyz.mst.wat.chk"
 ------------
 97.n.pdb.xyz
 ------------
 Charge =  0 Multiplicity = 1

 SCF Done:  E(RB3LYP) =  -498.975206490     A.U. after   11 cycles
 Normal termination of Gaussian 16 at Wed Mar  2 05:29:30 2022.
 Gaussian 16:  ES64L-G16RevA.03 25-Dec-2016

 ----------------------------------------------------------------------
 #p b3lyp/6-31G(d) scrf=(iefpcm,read,solvent=water) geom=allcheck guess
 =read
 ----------------------------------------------------------------------

 Structure from the checkpoint file:  "97.n.pdb.xyz.mst.wat.chk"
 ------------
 97.n.pdb.xyz
 ------------
 Charge =  0 Multiplicity = 1

                         Standard orientation:
 ---------------------------------------------------------------------
 Center     Atomic      Atomic             Coordinates (Angstroms)
 Number     Number       Type             X           Y           Z
 ---------------------------------------------------------------------
      1          6           0       -1.296882   -1.188576    1.395412
      2          7           0       -1.505655   -1.010315   -0.047753
      3          6           0       -2.900983   -0.626971   -0.335194
      4          6           0       -3.011093    0.910812   -0.123010
      5          6           0       -1.543347    1.406095   -0.162706
      6          6           0       -0.754301    0.147544   -0.603696
      7          6           0        0.729869    0.102254   -0.315462
      8          6           0        1.486960   -1.022617   -0.670390
      9          6           0        2.855267   -1.035448   -0.422855
     10          6           0        3.435775    0.087462    0.168563
     11          7           0        2.739773    1.179001    0.510580
     12          6           0        1.418661    1.168892    0.268543
     13          1           0       -1.540136   -0.301629    2.002279
     14          1           0       -1.927197   -2.013710    1.736757
     15          1           0       -0.254824   -1.452671    1.587510
     16          1           0       -3.115594   -0.873618   -1.380876
     17          1           0       -3.583650   -1.204457    0.291603
     18          1           0       -3.480900    1.151080    0.833958
     19          1           0       -3.620304    1.368660   -0.905564
     20          1           0       -1.221090    1.734912    0.828646
     21          1           0       -1.391918    2.242795   -0.849893
     22          1           0       -0.871868    0.061700   -1.693100
     23          1           0        1.000411   -1.876766   -1.129963
     24          1           0        3.464828   -1.893046   -0.684247
     25          1           0        4.503206    0.111468    0.373375
     26          1           0        0.880659    2.067814    0.554491
 ---------------------------------------------------------------------

 SCF Done:  E(RB3LYP) =  -498.981454505     A.U. after   10 cycles

 The electronic state is 1-A.
 Alpha  occ. eigenvalues --  -14.33613 -14.32485 -10.22383 -10.22247 -10.21717
 Alpha  occ. eigenvalues --  -10.20547 -10.20466 -10.20093 -10.19837 -10.19601
 Alpha  occ. eigenvalues --  -10.17921 -10.17728  -0.94362  -0.92825  -0.81026
 Alpha  occ. eigenvalues --   -0.77675  -0.76286  -0.70957  -0.68353  -0.63280
 Alpha  occ. eigenvalues --   -0.62554  -0.57402  -0.56435  -0.52306  -0.48743
 Alpha  occ. eigenvalues --   -0.48131  -0.47292  -0.45951  -0.44400  -0.42191
 Alpha  occ. eigenvalues --   -0.40252  -0.40178  -0.39620  -0.39346  -0.37780
 Alpha  occ. eigenvalues --   -0.35377  -0.34987  -0.33902  -0.33277  -0.31937
 Alpha  occ. eigenvalues --   -0.28450  -0.26264  -0.25865  -0.22064
 Alpha virt. eigenvalues --   -0.02883  -0.01125   0.08271   0.09980   0.11160
 Alpha virt. eigenvalues --    0.12685   0.13483   0.14186   0.15632   0.15747
 Alpha virt. eigenvalues --    0.16543   0.16941   0.17624   0.18495   0.18841

 Mulliken charges:
               1
     1  C   -0.322771
     2  N   -0.417484
     3  C   -0.144353
     4  C   -0.297797
     5  C   -0.295617
     6  C   -0.051800
     7  C    0.122227
     8  C   -0.135700
     9  C   -0.152284
    10  C    0.030719
    11  N   -0.479574
    12  C   -0.018375
    13  H    0.136999
    14  H    0.158558
    15  H    0.159515
    16  H    0.148429
    17  H    0.151055
    18  H    0.151136
    19  H    0.149141
    20  H    0.153296
    21  H    0.153712
    22  H    0.159212
    23  H    0.164314
    24  H    0.162005
    25  H    0.158755
    26  H    0.156682
 Sum of Mulliken charges =  -0.00000

 Dipole moment (field-independent basis, Debye):
    X=             -2.1074    Y=             -1.2382    Z=             -0.7960  Tot=              2.5706
 Quadrupole moment (field-independent basis, Debye-Ang):
   XX=            -69.3659   YY=            -73.8526   ZZ=            -71.5004
   XY=             -9.4737   XZ=             -3.3467   YZ=             -1.3597

 Normal termination of Gaussian 16 at Wed Mar  2 05:31:03 2022.
