 Gaussian 16, Revision A.03,

 ----------------------------------------------------------------------
 #p b3lyp/6-31G(d) opt=(MaxStep=10,MaxCycles=1000) freq scf=(MaxCycle=2
 000,NoVarAcc,NoIncFock) scrf=(iefpcm,read,solvent=water)
 ----------------------------------------------------------------------

 ------------
 99.n.pdb.xyz
 ------------
 Symbolic Z-matrix:
 Charge =  0 Multiplicity = 1

 SCF Done:  E(RB3LYP) =  -310.885142167     A.U. after   11 cycles
 SCF Done:  E(RB3LYP) =  -310.886077344     A.U. after    9 cycles
 SCF Done:  E(RB3LYP) =  -310.886092297     A.U. after    8 cycles
 SCF Done:  E(RB3LYP) =  -310.886095001     A.U. after    7 cycles
 Optimization completed.
    -- Stationary point found.

 1\1\GINC-PIRINEUS3\FOpt\RB3LYP\6-31G(d)\C8H10\UBATOR01\02-Mar-2022\0\\
 #p b3lyp/6-31G(d) opt=(MaxStep=10,MaxCycles=1000) freq scf=(MaxCycle=2
 000,NoVarAcc,NoIncFock) scrf=(iefpcm,read,solvent=water)\\99.n.pdb.xyz
 \\0,1\C,-1.0144366241,-1.8486148978,-0.2364404524\C,-0.0097471511,-0.7
 289005738,-0.1344626623\C,-0.4219074986,0.5894401667,0.1545311264\C,-1
 .8785746993,0.9149183118,0.3694122421\C,0.5432217079,1.5991614212,0.24
 00439\C,1.8996820623,1.3297520423,0.0460966459\C,2.306638058,0.0272725
 429,-0.2394153478\C,1.3517406605,-0.9878010107,-0.3270391778\H,-1.7564

 Normal termination of Gaussian 16 at Wed Mar  2 05:04:03 2022.

 --------------------------------------------------------------------
 #P Geom=AllCheck Guess=TCheck SCRF=Check GenChk RB3LYP/6-31G(d) Freq
 --------------------------------------------------------------------

 Structure from the checkpoint file:  "99.n.pdb.xyz.mst.wat.chk"
 ------------
 99.n.pdb.xyz
 ------------
 Charge =  0 Multiplicity = 1

 SCF Done:  E(RB3LYP) =  -310.886095001     A.U. after    1 cycles

  Exact polarizability: 141.326  -0.001 128.593   0.010  -0.001  51.529
 Approx polarizability: 157.182  -0.001 146.443   0.011  -0.001  58.926

 ******    1 imaginary frequencies (negative Signs) ******

                      1                      2                      3
                      A                      A                      A
 Frequencies --    -57.7132               147.1765               176.7295
 Red. masses --      1.0147                 1.1641                 2.1904
 Frc consts  --      0.0020                 0.0149                 0.0403
 IR Inten    --      0.1300                 0.0000                 0.0013

                      4                      5                      6
                      A                      A                      A
 Frequencies --    243.8552               247.1461               403.6639
 Red. masses --      2.4016                 2.9544                 2.6475
 Frc consts  --      0.0841                 0.1063                 0.2542
 IR Inten    --      0.5780                 5.9170                 0.3213

                      7                      8                      9
                      A                      A                      A
 Frequencies --    451.6162               509.9172               522.9935
 Red. masses --      2.8558                 4.6136                 3.1795
 Frc consts  --      0.3432                 0.7068                 0.5124
 IR Inten    --      3.6766                 1.6051                 0.0011

                     10                     11                     12
                      A                      A                      A
 Frequencies --    590.1520               726.3719               750.1368
 Red. masses --      5.4753                 3.4589                 4.2794
 Frc consts  --      1.1235                 1.0752                 1.4188
 IR Inten    --      0.6844                 0.0104                 0.2849

                     13                     14                     15
                      A                      A                      A
 Frequencies --    766.8991               837.5555               886.2293
 Red. masses --      1.1651                 4.2301                 1.2767
 Frc consts  --      0.4037                 1.7483                 0.5908
 IR Inten    --     60.8450                 0.7978                 0.0036

                     16                     17                     18
                      A                      A                      A
 Frequencies --    946.8003               992.5331              1003.3427
 Red. masses --      1.3271                 1.2575                 1.4698
 Frc consts  --      0.7009                 0.7298                 0.8718
 IR Inten    --      0.3368                 0.0042                10.6131

                     19                     20                     21
                      A                      A                      A
 Frequencies --   1020.4809              1056.0213              1078.6897
 Red. masses --      1.6986                 1.4445                 2.1015
 Frc consts  --      1.0422                 0.9491                 1.4407
 IR Inten    --      1.1335                11.8104                14.8164

                     22                     23                     24
                      A                      A                      A
 Frequencies --   1086.5965              1149.6120              1188.0585
 Red. masses --      1.6012                 1.6375                 1.0947
 Frc consts  --      1.1139                 1.2750                 0.9104
 IR Inten    --      0.0083                 7.3430                 0.0190

                     25                     26                     27
                      A                      A                      A
 Frequencies --   1211.3985              1255.9833              1323.9918
 Red. masses --      2.6358                 2.6020                 1.4493
 Frc consts  --      2.2789                 2.4184                 1.4969
 IR Inten    --      0.0292                 3.9416                 0.1744

                     28                     29                     30
                      A                      A                      A
 Frequencies --   1349.9307              1432.7498              1436.8598
 Red. masses --      6.7092                 1.2579                 1.2485
 Frc consts  --      7.2035                 1.5214                 1.5187
 IR Inten    --      0.0472                 0.0009                 0.0034

                     31                     32                     33
                      A                      A                      A
 Frequencies --   1482.6230              1494.0270              1498.5606
 Red. masses --      1.5867                 1.0453                 1.0448
 Frc consts  --      2.0550                 1.3748                 1.3824
 IR Inten    --      0.1112                15.0710                 3.6620

                     34                     35                     36
                      A                      A                      A
 Frequencies --   1503.4015              1520.7318              1538.6125
 Red. masses --      1.1173                 1.3272                 2.4434
 Frc consts  --      1.4879                 1.8083                 3.4081
 IR Inten    --      0.3092                26.1583                26.4926

                     37                     38                     39
                      A                      A                      A
 Frequencies --   1636.0617              1665.0536              3049.4179
 Red. masses --      5.6709                 5.7758                 1.0383
 Frc consts  --      8.9434                 9.4345                 5.6886
 IR Inten    --      0.3310                 4.0622                80.6234

                     40                     41                     42
                      A                      A                      A
 Frequencies --   3049.8488              3096.0812              3099.4179
 Red. masses --      1.0387                 1.1005                 1.1006
 Frc consts  --      5.6925                 6.2156                 6.2291
 IR Inten    --     15.8264                66.0381                 0.4853

                     43                     44                     45
                      A                      A                      A
 Frequencies --   3139.3452              3140.8103              3188.7201
 Red. masses --      1.1007                 1.1001                 1.0862
 Frc consts  --      6.3914                 6.3941                 6.5072
 IR Inten    --     47.9440                24.3438                31.3188

                     46                     47                     48
                      A                      A                      A
 Frequencies --   3192.6044              3205.0963              3219.7290
 Red. masses --      1.0885                 1.0916                 1.0972
 Frc consts  --      6.5369                 6.6068                 6.7018
 IR Inten    --      5.3296                60.1196                45.7054

 - Thermochemistry -
 -------------------
 Temperature   298.150 Kelvin.  Pressure   1.00000 Atm.
 Atom     1 has atomic number  6 and mass  12.00000

 Molecular mass:   106.07825 amu.
 Principal axes and moments of inertia in atomic units:
                           1         2         3
     Eigenvalues --   571.64123 840.317151389.73216
           X            1.00000   0.00002   0.00000
           Y           -0.00002   1.00000   0.00000
           Z           -0.00000  -0.00000   1.00000
 This molecule is an asymmetric top.
 Rotational symmetry number  1.
 Warning -- assumption of classical behavior for rotation
           may cause significant error
 Rotational temperatures (Kelvin)      0.15152     0.10307     0.06232
 Rotational constants (GHZ):           3.15712     2.14769     1.29863
    1 imaginary frequencies ignored.
 Zero-point vibrational energy     409802.5 (Joules/Mol)
                                   97.94516 (Kcal/Mol)
 Warning -- explicit consideration of   9 degrees of freedom as
           vibrations may cause significant error
 Vibrational temperatures:    211.75   254.27   350.85   355.59   580.78
          (Kelvin)            649.78   733.66   752.47   849.10  1045.09
                             1079.28  1103.40  1205.06  1275.09  1362.23
                             1428.03  1443.59  1468.24  1519.38  1551.99
                             1563.37  1654.04  1709.35  1742.93  1807.08
                             1904.93  1942.25  2061.41  2067.32  2133.16
                             2149.57  2156.09  2163.06  2187.99  2213.72
                             2353.93  2395.64  4387.43  4388.05  4454.57
                             4459.37  4516.82  4518.93  4587.86  4593.45
                             4611.42  4632.47

 Zero-point correction=                           0.156086 (Hartree/Particle)
 Thermal correction to Energy=                    0.163089
 Thermal correction to Enthalpy=                  0.164033
 Thermal correction to Gibbs Free Energy=         0.125100
 Sum of electronic and zero-point Energies=           -310.730009
 Sum of electronic and thermal Energies=              -310.723006
 Sum of electronic and thermal Enthalpies=            -310.722062
 Sum of electronic and thermal Free Energies=         -310.760995

                     E (Thermal)             CV                S
                      KCal/Mol        Cal/Mol-Kelvin    Cal/Mol-Kelvin
 Total                  102.340             27.176             81.942
 Electronic               0.000              0.000              0.000
 Translational            0.889              2.981             39.894
 Rotational               0.889              2.981             27.992
 Vibrational            100.562             21.214             14.056
 Vibration     1          0.617              1.906              2.708
 Vibration     2          0.628              1.871              2.363
 Vibration     3          0.659              1.773              1.775
 Vibration     4          0.661              1.768              1.751
 Vibration     5          0.769              1.462              0.949
 Vibration     6          0.810              1.357              0.791
 Vibration     7          0.865              1.228              0.634
 Vibration     8          0.878              1.199              0.603
 Vibration     9          0.947              1.053              0.467

                           ! Non-Optimized Parameters !

 1\1\GINC-PIRINEUS3\Freq\RB3LYP\6-31G(d)\C8H10\UBATOR01\02-Mar-2022\0\\
 #P Geom=AllCheck Guess=TCheck SCRF=Check GenChk RB3LYP/6-31G(d) Freq\\
 99.n.pdb.xyz\\0,1\C,-1.0144366241,-1.8486148978,-0.2364404524\C,-0.009
 7471511,-0.7289005738,-0.1344626623\C,-0.4219074986,0.5894401667,0.154
 5311264\C,-1.8785746993,0.9149183118,0.3694122421\C,0.5432217079,1.599
 1614212,0.2400439\C,1.8996820623,1.3297520423,0.0460966459\C,2.3066380
 58,0.0272725429,-0.2394153478\C,1.3517406605,-0.9878010107,-0.32703917
 78\H,-1.7564669636,-1.6563757025,-1.0200493631\H,-0.5179916736,-2.7945

 Normal termination of Gaussian 16 at Wed Mar  2 05:09:05 2022.

 ------------------------------------------
 #p b3lyp/6-31G(d) geom=allcheck guess=read
 ------------------------------------------

 Structure from the checkpoint file:  "99.n.pdb.xyz.mst.wat.chk"
 ------------
 99.n.pdb.xyz
 ------------
 Charge =  0 Multiplicity = 1

 SCF Done:  E(RB3LYP) =  -310.884011946     A.U. after   10 cycles
 Normal termination of Gaussian 16 at Wed Mar  2 05:09:36 2022.
 Gaussian 16:  ES64L-G16RevA.03 25-Dec-2016

 ----------------------------------------------------------------------
 #p b3lyp/6-31G(d) scrf=(iefpcm,read,solvent=water) geom=allcheck guess
 =read
 ----------------------------------------------------------------------

 Structure from the checkpoint file:  "99.n.pdb.xyz.mst.wat.chk"
 ------------
 99.n.pdb.xyz
 ------------
 Charge =  0 Multiplicity = 1

                         Standard orientation:
 ---------------------------------------------------------------------
 Center     Atomic      Atomic             Coordinates (Angstroms)
 Number     Number       Type             X           Y           Z
 ---------------------------------------------------------------------
      1          6           0       -1.772978    1.479218    0.000039
      2          6           0       -0.478732    0.705598   -0.000087
      3          6           0       -0.478864   -0.705577   -0.000070
      4          6           0       -1.773408   -1.478975    0.000034
      5          6           0        0.744750   -1.384616   -0.000009
      6          6           0        1.960301   -0.697145    0.000007
      7          6           0        1.960198    0.696980    0.000011
      8          6           0        0.744763    1.384438   -0.000020
      9          1           0       -2.385270    1.243444    0.878171
     10          1           0       -1.581053    2.554984    0.001354
     11          1           0       -2.384876    1.245396   -0.879311
     12          1           0       -2.385707   -1.243599    0.878246
     13          1           0       -1.582004   -2.554792    0.000661
     14          1           0       -2.385207   -1.244663   -0.878712
     15          1           0        0.738132   -2.471105    0.000034
     16          1           0        2.895876   -1.247521    0.000058
     17          1           0        2.895649    1.247417    0.000063
     18          1           0        0.738274    2.470914    0.000011
 ---------------------------------------------------------------------

 SCF Done:  E(RB3LYP) =  -310.885962543     A.U. after    9 cycles

 The electronic state is 1-A.
 Alpha  occ. eigenvalues --  -10.19334 -10.19284 -10.18538 -10.18485 -10.18389
 Alpha  occ. eigenvalues --  -10.18385 -10.17828 -10.17824  -0.85526  -0.77301
 Alpha  occ. eigenvalues --   -0.75866  -0.69313  -0.66885  -0.59253  -0.56974
 Alpha  occ. eigenvalues --   -0.49605  -0.46553  -0.44416  -0.42965  -0.40934
 Alpha  occ. eigenvalues --   -0.39893  -0.39493  -0.38223  -0.37971  -0.34733
 Alpha  occ. eigenvalues --   -0.33202  -0.33102  -0.24475  -0.23574
 Alpha virt. eigenvalues --    0.00148   0.00436   0.09856   0.10705   0.13384
 Alpha virt. eigenvalues --    0.14401   0.15282   0.15521   0.17051   0.18326
 Alpha virt. eigenvalues --    0.19245   0.22188   0.23647   0.25385   0.25480

 Mulliken charges:
               1
     1  C   -0.538076
     2  C    0.119507
     3  C    0.119423
     4  C   -0.538100
     5  C   -0.208164
     6  C   -0.152860
     7  C   -0.152865
     8  C   -0.208096
     9  H    0.167191
    10  H    0.162997
    11  H    0.167145
    12  H    0.167205
    13  H    0.162998
    14  H    0.167214
    15  H    0.138728
    16  H    0.143526
    17  H    0.143502
    18  H    0.138725
 Sum of Mulliken charges =  -0.00000

 Dipole moment (field-independent basis, Debye):
    X=             -0.8241    Y=              0.0002    Z=              0.0002  Tot=              0.8241
 Quadrupole moment (field-independent basis, Debye-Ang):
   XX=            -43.7819   YY=            -43.9659   ZZ=            -51.1608
   XY=              0.0014   XZ=              0.0004   YZ=              0.0005

 Normal termination of Gaussian 16 at Wed Mar  2 05:10:11 2022.
