 Gaussian 16, Revision B.01,

 -----------------------------------------------------------
 #p b3lyp/6-31G(d) opt freq scrf=(iefpcm,read,solvent=water)
 -----------------------------------------------------------

 -----------------------------------------
 SET_328_BBB212_conf1.geo_135_300 geometry
 -----------------------------------------
 Symbolic Z-matrix:
 Charge = -1 Multiplicity = 1

 SCF Done:  E(RB3LYP) =  -731.145965230     A.U. after   13 cycles
 SCF Done:  E(RB3LYP) =  -731.179098423     A.U. after   11 cycles
 SCF Done:  E(RB3LYP) =  -731.193487129     A.U. after   11 cycles
 SCF Done:  E(RB3LYP) =  -731.194743361     A.U. after   10 cycles
 SCF Done:  E(RB3LYP) =  -731.195325614     A.U. after   10 cycles
 SCF Done:  E(RB3LYP) =  -731.195677292     A.U. after   10 cycles
 SCF Done:  E(RB3LYP) =  -731.195852696     A.U. after   10 cycles
 SCF Done:  E(RB3LYP) =  -731.195941000     A.U. after    9 cycles
 SCF Done:  E(RB3LYP) =  -731.195916307     A.U. after    9 cycles
 SCF Done:  E(RB3LYP) =  -731.195856047     A.U. after    9 cycles
 SCF Done:  E(RB3LYP) =  -731.195228012     A.U. after   12 cycles
 SCF Done:  E(RB3LYP) =  -731.195894238     A.U. after   10 cycles
 SCF Done:  E(RB3LYP) =  -731.195800183     A.U. after    9 cycles
 SCF Done:  E(RB3LYP) =  -731.195857283     A.U. after    9 cycles
 SCF Done:  E(RB3LYP) =  -731.195894607     A.U. after    8 cycles
 SCF Done:  E(RB3LYP) =  -731.195895809     A.U. after    7 cycles
 Optimization completed.
    -- Stationary point found.
 Normal termination of Gaussian 16 at Sun Jul 11 16:19:13 2021.

 --------------------------------------------------------------------
 #P Geom=AllCheck Guess=TCheck SCRF=Check GenChk RB3LYP/6-31G(d) Freq
 --------------------------------------------------------------------

 Structure from the checkpoint file:  "SET_328_BBB212_conf1.geo_135_300.chk"
 -----------------------------------------
 SET_328_BBB212_conf1.geo_135_300 geometry
 -----------------------------------------
 Charge = -1 Multiplicity = 1

 SCF Done:  E(RB3LYP) =  -731.195895809     A.U. after    1 cycles

  Exact polarizability: 276.942  15.098 199.636 -32.810  -5.408 204.597
 Approx polarizability: 304.747  21.353 228.686 -41.091  -6.457 238.825

 ******    1 imaginary frequencies (negative Signs) ******

                      1                      2                      3
                      A                      A                      A
 Frequencies --    -18.9483                44.9050                47.2471
 Red. masses --      3.5705                 6.8676                 3.9673
 Frc consts  --      0.0008                 0.0082                 0.0052
 IR Inten    --      4.3714                 7.5518                 1.9872

                      4                      5                      6
                      A                      A                      A
 Frequencies --    105.1386               158.3634               184.4366
 Red. masses --      4.9565                 5.7698                 4.0775
 Frc consts  --      0.0323                 0.0853                 0.0817
 IR Inten    --      1.9069                 1.8005                 0.2546

                      7                      8                      9
                      A                      A                      A
 Frequencies --    230.0015               266.5615               283.1820
 Red. masses --      3.6544                 2.8786                 4.5010
 Frc consts  --      0.1139                 0.1205                 0.2127
 IR Inten    --      1.9058                 2.2493                 2.2281

                     10                     11                     12
                      A                      A                      A
 Frequencies --    308.7569               316.5137               317.5449
 Red. masses --      1.1515                 1.9524                 1.1206
 Frc consts  --      0.0647                 0.1152                 0.0666
 IR Inten    --      1.8785                 1.7790               190.2729

                     13                     14                     15
                      A                      A                      A
 Frequencies --    336.6630               348.9594               370.3186
 Red. masses --      3.3019                 1.4053                 3.8340
 Frc consts  --      0.2205                 0.1008                 0.3098
 IR Inten    --      4.6479                 0.1240                 2.1527

                     16                     17                     18
                      A                      A                      A
 Frequencies --    421.0552               423.2784               432.2255
 Red. masses --      3.7836                 3.3393                 3.3477
 Frc consts  --      0.3952                 0.3525                 0.3685
 IR Inten    --      4.1230                 1.1970                 0.1878

                     19                     20                     21
                      A                      A                      A
 Frequencies --    455.5466               486.5775               489.1292
 Red. masses --      4.4834                 3.8851                 3.7377
 Frc consts  --      0.5482                 0.5419                 0.5269
 IR Inten    --      9.2396                 2.9986                 3.7026

                     22                     23                     24
                      A                      A                      A
 Frequencies --    536.9699               557.2346               572.4711
 Red. masses --      3.5911                 2.5032                 2.3082
 Frc consts  --      0.6101                 0.4580                 0.4457
 IR Inten    --      9.0557                46.0467                34.6730

                     25                     26                     27
                      A                      A                      A
 Frequencies --    648.1401               651.8066               655.6646
 Red. masses --      6.2236                 6.0683                 6.8691
 Frc consts  --      1.5404                 1.5190                 1.7398
 IR Inten    --      2.8852                 3.0388                 0.1362

                     28                     29                     30
                      A                      A                      A
 Frequencies --    734.1342               750.9046               768.4950
 Red. masses --      4.1042                 3.8734                 2.8484
 Frc consts  --      1.3033                 1.2868                 0.9911
 IR Inten    --      6.8119                 6.7333                17.1374

                     31                     32                     33
                      A                      A                      A
 Frequencies --    815.8533               824.5929               840.8657
 Red. masses --      1.2455                 1.2908                 1.7387
 Frc consts  --      0.4884                 0.5171                 0.7243
 IR Inten    --      0.7204                 8.6680                58.8659

                     34                     35                     36
                      A                      A                      A
 Frequencies --    841.3359               847.7911               852.3701
 Red. masses --      2.3136                 5.2775                 5.1748
 Frc consts  --      0.9649                 2.2349                 2.2151
 IR Inten    --     62.5718                20.6183                13.1391

                     37                     38                     39
                      A                      A                      A
 Frequencies --    927.6275               945.6645               947.3507
 Red. masses --      1.9244                 1.3274                 1.2947
 Frc consts  --      0.9756                 0.6994                 0.6846
 IR Inten    --      2.7894                 1.0949                 1.0093

                     40                     41                     42
                      A                      A                      A
 Frequencies --    956.1506               956.7178               958.3444
 Red. masses --      1.3694                 1.4305                 1.4591
 Frc consts  --      0.7376                 0.7714                 0.7895
 IR Inten    --      2.0558                 1.7912                 3.4478

                     43                     44                     45
                      A                      A                      A
 Frequencies --   1004.7349              1030.7018              1040.3119
 Red. masses --      2.9097                 2.6526                 1.3306
 Frc consts  --      1.7306                 1.6603                 0.8485
 IR Inten    --      7.0698                 7.0736                 4.2002

                     46                     47                     48
                      A                      A                      A
 Frequencies --   1107.7049              1123.2359              1135.3349
 Red. masses --      1.8832                 1.7362                 2.0071
 Frc consts  --      1.3614                 1.2906                 1.5243
 IR Inten    --     19.9256                11.1747                 3.8422

                     49                     50                     51
                      A                      A                      A
 Frequencies --   1145.3908              1183.1739              1202.4156
 Red. masses --      1.6312                 2.0022                 1.1920
 Frc consts  --      1.2609                 1.6514                 1.0154
 IR Inten    --     13.2079                16.5448               186.9144

                     52                     53                     54
                      A                      A                      A
 Frequencies --   1205.8476              1216.4520              1261.8383
 Red. masses --      1.1769                 1.4030                 3.3663
 Frc consts  --      1.0083                 1.2232                 3.1580
 IR Inten    --     91.1251               152.0169                20.3712

                     55                     56                     57
                      A                      A                      A
 Frequencies --   1264.6895              1277.8519              1299.8476
 Red. masses --      3.6240                 3.0530                 3.2982
 Frc consts  --      3.4151                 2.9372                 3.2833
 IR Inten    --     55.5670                26.9580               169.8630

                     58                     59                     60
                      A                      A                      A
 Frequencies --   1340.0944              1346.6276              1387.9798
 Red. masses --      1.7111                 2.2755                 1.9338
 Frc consts  --      1.8104                 2.4312                 2.1950
 IR Inten    --     32.9681                36.9616                28.3185

                     61                     62                     63
                      A                      A                      A
 Frequencies --   1409.4559              1416.7485              1435.2112
 Red. masses --      3.3011                 1.2475                 1.2346
 Frc consts  --      3.8638                 1.4753                 1.4984
 IR Inten    --    296.5337                13.5565                 8.3709

                     64                     65                     66
                      A                      A                      A
 Frequencies --   1461.5154              1475.6930              1509.9425
 Red. masses --      3.2886                 2.6772                 1.0576
 Frc consts  --      4.1387                 3.4350                 1.4207
 IR Inten    --     21.2552                58.4524                 6.8749

                     67                     68                     69
                      A                      A                      A
 Frequencies --   1513.9936              1523.9343              1530.4339
 Red. masses --      1.0601                 1.0671                 1.0792
 Frc consts  --      1.4317                 1.4601                 1.4893
 IR Inten    --      5.0816                 5.1001                23.0177

                     70                     71                     72
                      A                      A                      A
 Frequencies --   1555.4005              1559.0934              1567.6468
 Red. masses --      3.4634                 2.6027                 3.9654
 Frc consts  --      4.9366                 3.7274                 5.7416
 IR Inten    --    384.8210               122.8363               309.0510

                     73                     74                     75
                      A                      A                      A
 Frequencies --   1643.7125              1652.1599              1671.3862
 Red. masses --      5.5500                 5.6169                 5.8223
 Frc consts  --      8.8348                 9.0334                 9.5830
 IR Inten    --     30.4783               352.7278                61.1238

                     76                     77                     78
                      A                      A                      A
 Frequencies --   3052.5572              3057.9634              3119.1590
 Red. masses --      1.0366                 1.0378                 1.1002
 Frc consts  --      5.6911                 5.7181                 6.3065
 IR Inten    --     42.4140                63.5171                 4.2509

                     79                     80                     81
                      A                      A                      A
 Frequencies --   3122.7511              3138.4109              3138.7335
 Red. masses --      1.0998                 1.1020                 1.1024
 Frc consts  --      6.3187                 6.3952                 6.3986
 IR Inten    --    144.8305                51.0066                58.6423

                     82                     83                     84
                      A                      A                      A
 Frequencies --   3154.8315              3159.5000              3179.4803
 Red. masses --      1.0874                 1.0848                 1.0928
 Frc consts  --      6.3769                 6.3805                 6.5089
 IR Inten    --     72.6866                44.5133               110.8964

                     85                     86                     87
                      A                      A                      A
 Frequencies --   3192.6230              3198.3833              3213.0790
 Red. masses --      1.0901                 1.0868                 1.0932
 Frc consts  --      6.5465                 6.5505                 6.6497
 IR Inten    --     41.0032                23.0806                32.5607

                     88                     89                     90
                      A                      A                      A
 Frequencies --   3214.8654              3236.1782              3731.2717
 Red. masses --      1.0890                 1.0916                 1.0663
 Frc consts  --      6.6316                 6.7353                 8.7464
 IR Inten    --     15.6956                27.1868               180.0420

 - Thermochemistry -
 -------------------
 Temperature   298.150 Kelvin.  Pressure   1.00000 Atm.
 Atom     1 has atomic number  6 and mass  12.00000

 Molecular mass:   227.10720 amu.
 Principal axes and moments of inertia in atomic units:
                           1         2         3
     Eigenvalues --  2137.999926843.005047679.79812
           X            0.99997  -0.00760  -0.00295
           Y            0.00757   0.99991  -0.01097
           Z            0.00304   0.01095   0.99994
 This molecule is an asymmetric top.
 Rotational symmetry number  1.
 Warning -- assumption of classical behavior for rotation
           may cause significant error
 Rotational temperatures (Kelvin)      0.04051     0.01266     0.01128
 Rotational constants (GHZ):           0.84413     0.26374     0.23500
    1 imaginary frequencies ignored.
 Zero-point vibrational energy     688015.7 (Joules/Mol)
                                  164.43969 (Kcal/Mol)
 Warning -- explicit consideration of  23 degrees of freedom as
           vibrations may cause significant error
 Vibrational temperatures:     64.61    67.98   151.27   227.85   265.36
          (Kelvin)            330.92   383.52   407.44   444.23   455.39
                              456.88   484.38   502.07   532.81   605.80
                              609.00   621.88   655.43   700.08   703.75
                              772.58   801.74   823.66   932.53   937.80
                              943.36  1056.26  1080.38  1105.69  1173.83
                             1186.41  1209.82  1210.49  1219.78  1226.37
                             1334.65  1360.60  1363.03  1375.69  1376.50
                             1378.84  1445.59  1482.95  1496.78  1593.74
                             1616.09  1633.49  1647.96  1702.32  1730.01
                             1734.95  1750.20  1815.50  1819.61  1838.54
                             1870.19  1928.10  1937.50  1996.99  2027.89
                             2038.39  2064.95  2102.79  2123.19  2172.47
                             2178.30  2192.60  2201.95  2237.87  2243.19
                             2255.49  2364.94  2377.09  2404.75  4391.95
                             4399.73  4487.77  4492.94  4515.47  4515.94
                             4539.10  4545.82  4574.56  4593.47  4601.76
                             4622.90  4625.47  4656.14  5368.47

 Zero-point correction=                           0.262051 (Hartree/Particle)
 Thermal correction to Energy=                    0.276120
 Thermal correction to Enthalpy=                  0.277064
 Thermal correction to Gibbs Free Energy=         0.221511
 Sum of electronic and zero-point Energies=           -730.933844
 Sum of electronic and thermal Energies=              -730.919776
 Sum of electronic and thermal Enthalpies=            -730.918831
 Sum of electronic and thermal Free Energies=         -730.974385

                     E (Thermal)             CV                S
                      KCal/Mol        Cal/Mol-Kelvin    Cal/Mol-Kelvin
 Total                  173.268             58.143            116.922
 Electronic               0.000              0.000              0.000
 Translational            0.889              2.981             42.163
 Rotational               0.889              2.981             33.085
 Vibrational            171.491             52.182             41.674
 Vibration     1          0.595              1.979              5.030
 Vibration     2          0.595              1.979              4.929
 Vibration     3          0.605              1.945              3.357
 Vibration     4          0.621              1.893              2.569
 Vibration     5          0.631              1.861              2.283
 Vibration     6          0.652              1.795              1.879
 Vibration     7          0.672              1.734              1.618
 Vibration     8          0.682              1.705              1.514
 Vibration     9          0.698              1.657              1.369
 Vibration    10          0.703              1.642              1.328
 Vibration    11          0.704              1.640              1.323
 Vibration    12          0.717              1.602              1.228
 Vibration    13          0.726              1.577              1.171
 Vibration    14          0.742              1.533              1.078
 Vibration    15          0.784              1.424              0.888
 Vibration    16          0.785              1.420              0.881
 Vibration    17          0.793              1.400              0.851
 Vibration    18          0.814              1.349              0.779
 Vibration    19          0.843              1.280              0.693
 Vibration    20          0.845              1.274              0.686
 Vibration    21          0.892              1.168              0.572
 Vibration    22          0.913              1.124              0.529
 Vibration    23          0.929              1.091              0.500

                           ! Non-Optimized Parameters !
 Normal termination of Gaussian 16 at Sun Jul 11 16:29:02 2021.

 ----------------------------------------------------------------------
 #p b3lyp/6-31G(d) scrf=(iefpcm,read,solvent=water) geom=allcheck guess
 =read
 ----------------------------------------------------------------------

 Structure from the checkpoint file:  "SET_328_BBB212_conf1.geo_135_300.chk"
 -----------------------------------------
 SET_328_BBB212_conf1.geo_135_300 geometry
 -----------------------------------------
 Charge = -1 Multiplicity = 1

 SCF Done:  E(RB3LYP) =  -731.195895809     A.U. after    1 cycles
 Normal termination of Gaussian 16 at Sun Jul 11 16:29:10 2021.

 -----------------------------
 #p B3LYP/6-31G* geom=allcheck
 -----------------------------

 Structure from the checkpoint file:  "SET_328_BBB212_conf1.geo_135_300.chk"
 -----------------------------------------
 SET_328_BBB212_conf1.geo_135_300 geometry
 -----------------------------------------
 Charge = -1 Multiplicity = 1

 SCF Done:  E(RB3LYP) =  -731.090488814     A.U. after   18 cycles

 The electronic state is 1-A.
 Alpha  occ. eigenvalues --  -19.09037 -18.87245 -10.14934 -10.09020 -10.08541
 Alpha  occ. eigenvalues --  -10.08384 -10.08242 -10.08209 -10.07931 -10.06422
 Alpha  occ. eigenvalues --  -10.06110 -10.03799 -10.01909 -10.01746 -10.01236
 Alpha  occ. eigenvalues --   -9.99350  -9.99158  -0.96930  -0.75802  -0.75035
 Alpha  occ. eigenvalues --   -0.70059  -0.64787  -0.64481  -0.61860  -0.57851
 Alpha  occ. eigenvalues --   -0.55915  -0.54018  -0.52106  -0.50161  -0.45558
 Alpha  occ. eigenvalues --   -0.44543  -0.42392  -0.39617  -0.37615  -0.36262
 Alpha  occ. eigenvalues --   -0.34487  -0.33754  -0.32008  -0.31269  -0.30663
 Alpha  occ. eigenvalues --   -0.29722  -0.28277  -0.27663  -0.27385  -0.26599
 Alpha  occ. eigenvalues --   -0.25897  -0.24408  -0.23783  -0.23601  -0.22162
 Alpha  occ. eigenvalues --   -0.21371  -0.19458  -0.18865  -0.16279  -0.16137
 Alpha  occ. eigenvalues --   -0.14923  -0.12331  -0.10883  -0.07400  -0.01561
 Alpha  occ. eigenvalues --    0.00731
 Alpha virt. eigenvalues --    0.10004   0.11817   0.14718   0.17429   0.19425
 Alpha virt. eigenvalues --    0.20330   0.21588   0.23297   0.25034   0.25204
 Alpha virt. eigenvalues --    0.25482   0.26097   0.27207   0.28026   0.30142

 Mulliken charges:
               1
     1  C   -0.448937
     2  H    0.138471
     3  H    0.142423
     4  H    0.102103
     5  C   -0.049539
     6  C   -0.444760
     7  H    0.113214
     8  H    0.137283
     9  H    0.133865
    10  C    0.189629
    11  C   -0.205491
    12  C   -0.166635
    13  C    0.341144
    14  O   -0.661152
    15  H    0.394855
    16  C   -0.200184
    17  C   -0.180061
    18  H    0.143842
    19  H    0.094645
    20  H    0.105364
    21  H    0.110149
    22  C    0.137951
    23  C   -0.190048
    24  H    0.062731
    25  C   -0.225822
    26  H    0.053413
    27  C    0.421018
    28  O   -0.715792
    29  C   -0.233808
    30  H    0.049372
    31  C   -0.204937
    32  H    0.055694
 Sum of Mulliken charges =  -1.00000

 Dipole moment (field-independent basis, Debye):
    X=             13.2799    Y=              3.9280    Z=              1.7914  Tot=             13.9640
 Quadrupole moment (field-independent basis, Debye-Ang):
   XX=           -178.7545   YY=           -112.0247   ZZ=           -101.9925
   XY=            -26.5852   XZ=              1.0033   YZ=             -6.0681

 Normal termination of Gaussian 16 at Sun Jul 11 16:29:57 2021.
 Gaussian 16:  ES64L-G16RevB.01 20-Dec-2017

 --------------------------------------------------------
 #p mp2/aug-cc-pVDZ scf=tight maxdisk=180GB geom=allcheck
 --------------------------------------------------------

 Structure from the checkpoint file:  "SET_328_BBB212_conf1.geo_135_300.chk"
 -----------------------------------------
 SET_328_BBB212_conf1.geo_135_300 geometry
 -----------------------------------------
 Charge = -1 Multiplicity = 1

                         Standard orientation:
 ---------------------------------------------------------------------
 Center     Atomic      Atomic             Coordinates (Angstroms)
 Number     Number       Type             X           Y           Z
 ---------------------------------------------------------------------
      1          6           0       -0.090802    2.436588   -1.152503
      2          1           0       -1.001766    3.039356   -1.100830
      3          1           0       -0.098457    1.896533   -2.103467
      4          1           0        0.766100    3.120038   -1.153408
      5          6           0       -0.048732    1.468981    0.048707
      6          6           0        0.001833    2.325846    1.330980
      7          1           0        0.905584    2.942768    1.329781
      8          1           0        0.018150    1.706681    2.231209
      9          1           0       -0.865958    2.992263    1.393315
     10          6           0        1.214208    0.588098    0.019908
     11          6           0        2.246477    0.748997   -0.912070
     12          6           0        3.385489   -0.057932   -0.896433
     13          6           0        3.524127   -1.055611    0.070710
     14          8           0        4.657490   -1.818668    0.039358
     15          1           0        4.622779   -2.480700    0.752079
     16          6           0        2.507663   -1.233609    1.018387
     17          6           0        1.376527   -0.422964    0.979847
     18          1           0        0.591188   -0.587474    1.710674
     19          1           0        2.599355   -2.004675    1.777135
     20          1           0        4.171177    0.077081   -1.631720
     21          1           0        2.170479    1.512519   -1.676765
     22          6           0       -1.298625    0.576982    0.009438
     23          6           0       -1.549264   -0.233328   -1.114812
     24          1           0       -0.840663   -0.215243   -1.940181
     25          6           0       -2.662963   -1.057624   -1.206707
     26          1           0       -2.815323   -1.667695   -2.094540
     27          6           0       -3.645009   -1.148715   -0.159253
     28          8           0       -4.677410   -1.915712   -0.234799
     29          6           0       -3.366726   -0.314708    0.973444
     30          1           0       -4.072345   -0.336641    1.802341
     31          6           0       -2.242601    0.507367    1.045317
     32          1           0       -2.100559    1.110020    1.938144
 ---------------------------------------------------------------------

 SCF Done:  E(RHF) =  -726.569938363     A.U. after   17 cycles
