 Gaussian 16, Revision B.01,

 -----------------------------------------------------------
 #p b3lyp/6-31G(d) opt freq scrf=(iefpcm,read,solvent=water)
 -----------------------------------------------------------

 -----------------------------------------
 SET_328_BBB315_conf1.geo_180_270 geometry
 -----------------------------------------
 Symbolic Z-matrix:
 Charge =  1 Multiplicity = 1

 SCF Done:  E(RB3LYP) =  -514.276620548     A.U. after   13 cycles
 SCF Done:  E(RB3LYP) =  -514.305882410     A.U. after   12 cycles
 SCF Done:  E(RB3LYP) =  -514.314922092     A.U. after   11 cycles
 SCF Done:  E(RB3LYP) =  -514.316139064     A.U. after   10 cycles
 SCF Done:  E(RB3LYP) =  -514.316567723     A.U. after   10 cycles
 SCF Done:  E(RB3LYP) =  -514.316881110     A.U. after   10 cycles
 SCF Done:  E(RB3LYP) =  -514.317118536     A.U. after    9 cycles
 SCF Done:  E(RB3LYP) =  -514.317329492     A.U. after   10 cycles
 SCF Done:  E(RB3LYP) =  -514.317423031     A.U. after    9 cycles
 SCF Done:  E(RB3LYP) =  -514.317448602     A.U. after    9 cycles
 SCF Done:  E(RB3LYP) =  -514.317460891     A.U. after    9 cycles
 SCF Done:  E(RB3LYP) =  -514.317468612     A.U. after    9 cycles
 SCF Done:  E(RB3LYP) =  -514.317465921     A.U. after    8 cycles
 SCF Done:  E(RB3LYP) =  -514.317465429     A.U. after    7 cycles
 SCF Done:  E(RB3LYP) =  -514.317468451     A.U. after    8 cycles
 SCF Done:  E(RB3LYP) =  -514.317465243     A.U. after    8 cycles
 Optimization completed.
    -- Stationary point found.
 Normal termination of Gaussian 16 at Sun Jul 11 16:33:00 2021.

 --------------------------------------------------------------------
 #P Geom=AllCheck Guess=TCheck SCRF=Check GenChk RB3LYP/6-31G(d) Freq
 --------------------------------------------------------------------

 Structure from the checkpoint file:  "SET_328_BBB315_conf1.geo_180_270.chk"
 -----------------------------------------
 SET_328_BBB315_conf1.geo_180_270 geometry
 -----------------------------------------
 Charge =  1 Multiplicity = 1

 SCF Done:  E(RB3LYP) =  -514.317465243     A.U. after    1 cycles

  Exact polarizability: 227.108   8.449 154.991 -18.207   5.643  73.129
 Approx polarizability: 249.204   6.619 188.619 -22.900   8.508  84.537

                      1                      2                      3
                      A                      A                      A
 Frequencies --     66.4720                85.2707               132.8649
 Red. masses --      4.0531                 4.0992                 1.8905
 Frc consts  --      0.0106                 0.0176                 0.0197
 IR Inten    --     24.4388                21.5972                 8.3130

                      4                      5                      6
                      A                      A                      A
 Frequencies --    189.2883               240.1729               270.0736
 Red. masses --      4.1855                 4.1686                 3.0644
 Frc consts  --      0.0884                 0.1417                 0.1317
 IR Inten    --      3.3275                 3.6875                 6.8538

                      7                      8                      9
                      A                      A                      A
 Frequencies --    319.4872               359.1446               369.2248
 Red. masses --      3.4002                 4.0230                 1.0523
 Frc consts  --      0.2045                 0.3057                 0.0845
 IR Inten    --     16.1144                 7.8278                 0.0329

                     10                     11                     12
                      A                      A                      A
 Frequencies --    448.1508               483.7892               563.2695
 Red. masses --      3.1686                 3.7387                 5.5796
 Frc consts  --      0.3749                 0.5156                 1.0430
 IR Inten    --      8.8066                 4.1023                 1.6889

                     13                     14                     15
                      A                      A                      A
 Frequencies --    578.4938               629.3245               675.4395
 Red. masses --      3.4010                 6.4425                 2.9797
 Frc consts  --      0.6706                 1.5033                 0.8009
 IR Inten    --      0.1270                 0.9921                 4.2879

                     16                     17                     18
                      A                      A                      A
 Frequencies --    709.7079               744.0156               761.2641
 Red. masses --      1.5736                 3.7793                 1.7606
 Frc consts  --      0.4670                 1.2326                 0.6011
 IR Inten    --     25.0305                 0.6968                60.5764

                     19                     20                     21
                      A                      A                      A
 Frequencies --    767.8679               791.0233               847.5715
 Red. masses --      2.7856                 1.1935                 4.0752
 Frc consts  --      0.9677                 0.4400                 1.7249
 IR Inten    --     39.9162                13.0817                 1.2322

                     22                     23                     24
                      A                      A                      A
 Frequencies --    855.9663               923.1092               940.9056
 Red. masses --      1.4429                 4.4251                 2.3967
 Frc consts  --      0.6229                 2.2217                 1.2502
 IR Inten    --      1.4806                 9.8445                24.7815

                     25                     26                     27
                      A                      A                      A
 Frequencies --    944.2765               952.5622               989.9848
 Red. masses --      1.3096                 1.3030                 1.2546
 Frc consts  --      0.6880                 0.6966                 0.7244
 IR Inten    --      1.4011                26.1404                 0.0775

                     28                     29                     30
                      A                      A                      A
 Frequencies --   1007.1325              1028.4561              1045.7680
 Red. masses --      4.8089                 2.7815                 2.6726
 Frc consts  --      2.8739                 1.7334                 1.7221
 IR Inten    --      8.1059                24.8417                 7.5424

                     31                     32                     33
                      A                      A                      A
 Frequencies --   1102.3434              1154.0941              1156.1501
 Red. masses --      1.3254                 1.5628                 1.6848
 Frc consts  --      0.9489                 1.2264                 1.3268
 IR Inten    --      7.5679                11.7278                33.8812

                     34                     35                     36
                      A                      A                      A
 Frequencies --   1169.7382              1205.2255              1271.2129
 Red. masses --      1.1856                 1.3504                 3.0245
 Frc consts  --      0.9558                 1.1557                 2.8796
 IR Inten    --     25.8671                 3.9535                42.2991

                     37                     38                     39
                      A                      A                      A
 Frequencies --   1300.7537              1310.1965              1341.0504
 Red. masses --      2.0965                 1.7109                 1.4278
 Frc consts  --      2.0900                 1.7304                 1.5129
 IR Inten    --     43.0533                41.2333                37.3142

                     40                     41                     42
                      A                      A                      A
 Frequencies --   1360.0293              1380.6525              1396.2933
 Red. masses --      1.1383                 3.3896                 2.3048
 Frc consts  --      1.2405                 3.8069                 2.6475
 IR Inten    --     11.5985               101.5517                10.4986

                     43                     44                     45
                      A                      A                      A
 Frequencies --   1402.4355              1428.2705              1495.5568
 Red. masses --      2.6683                 1.5273                 1.1590
 Frc consts  --      3.0921                 1.8356                 1.5274
 IR Inten    --     11.9874                11.1428                 1.5212

                     46                     47                     48
                      A                      A                      A
 Frequencies --   1501.1318              1522.8122              1536.9680
 Red. masses --      2.3991                 1.0851                 1.1742
 Frc consts  --      3.1852                 1.4826                 1.6342
 IR Inten    --      0.7006                19.7603               198.1636

                     49                     50                     51
                      A                      A                      A
 Frequencies --   1550.4234              1580.0446              1594.2398
 Red. masses --      4.8832                 4.9773                 5.7273
 Frc consts  --      6.9160                 7.3212                 8.5765
 IR Inten    --    105.6710                 1.5405                24.0189

                     52                     53                     54
                      A                      A                      A
 Frequencies --   1652.1423              1655.3629              1694.3161
 Red. masses --      1.0412                 1.0385                 6.0533
 Frc consts  --      1.6744                 1.6766                10.2384
 IR Inten    --     73.0796                86.4064                29.2528

                     55                     56                     57
                      A                      A                      A
 Frequencies --   3056.3860              3114.5760              3139.7185
 Red. masses --      1.0649                 1.0996                 1.0591
 Frc consts  --      5.8613                 6.2847                 6.1514
 IR Inten    --     38.6719                21.0896                13.9216

                     58                     59                     60
                      A                      A                      A
 Frequencies --   3199.0180              3225.5024              3238.8387
 Red. masses --      1.1110                 1.0877                 1.0909
 Frc consts  --      6.6990                 6.6676                 6.7424
 IR Inten    --     13.6448                 5.8809                 9.4211

                     61                     62                     63
                      A                      A                      A
 Frequencies --   3244.8899              3273.1765              3310.8087
 Red. masses --      1.0963                 1.0961                 1.0987
 Frc consts  --      6.8012                 6.9190                 7.0956
 IR Inten    --     15.2830                 6.2578                 0.0997

                     64                     65                     66
                      A                      A                      A
 Frequencies --   3360.7255              3423.5118              3444.7778
 Red. masses --      1.0355                 1.0909                 1.0948
 Frc consts  --      6.8910                 7.5332                 7.6542
 IR Inten    --    155.8664               222.3312               230.0116

 - Thermochemistry -
 -------------------
 Temperature   298.150 Kelvin.  Pressure   1.00000 Atm.
 Atom     1 has atomic number  7 and mass  14.00307

 Molecular mass:   162.10312 amu.
 Principal axes and moments of inertia in atomic units:
                           1         2         3
     Eigenvalues --   572.247834013.443164424.40603
           X            1.00000  -0.00066   0.00095
           Y            0.00066   0.99999  -0.00384
           Z           -0.00095   0.00384   0.99999
 This molecule is an asymmetric top.
 Rotational symmetry number  1.
 Warning -- assumption of classical behavior for rotation
           may cause significant error
 Rotational temperatures (Kelvin)      0.15136     0.02158     0.01958
 Rotational constants (GHZ):           3.15378     0.44967     0.40791
 Zero-point vibrational energy     547372.0 (Joules/Mol)
                                  130.82505 (Kcal/Mol)
 Warning -- explicit consideration of  13 degrees of freedom as
           vibrations may cause significant error
 Vibrational temperatures:     95.64   122.69   191.16   272.34   345.56
          (Kelvin)            388.58   459.67   516.73   531.23   644.79
                              696.06   810.42   832.32   905.46   971.81
                             1021.11  1070.47  1095.29  1104.79  1138.11
                             1219.47  1231.54  1328.15  1353.75  1358.60
                             1370.52  1424.37  1449.04  1479.72  1504.63
                             1586.03  1660.48  1663.44  1682.99  1734.05
                             1828.99  1871.49  1885.08  1929.47  1956.78
                             1986.45  2008.95  2017.79  2054.96  2151.77
                             2159.79  2190.99  2211.35  2230.71  2273.33
                             2293.76  2377.06  2381.70  2437.74  4397.46
                             4481.18  4517.35  4602.67  4640.78  4659.97
                             4668.67  4709.37  4763.52  4835.33  4925.67
                             4956.27

 Zero-point correction=                           0.208483 (Hartree/Particle)
 Thermal correction to Energy=                    0.218438
 Thermal correction to Enthalpy=                  0.219382
 Thermal correction to Gibbs Free Energy=         0.172761
 Sum of electronic and zero-point Energies=           -514.108982
 Sum of electronic and thermal Energies=              -514.099027
 Sum of electronic and thermal Enthalpies=            -514.098083
 Sum of electronic and thermal Free Energies=         -514.144705

                     E (Thermal)             CV                S
                      KCal/Mol        Cal/Mol-Kelvin    Cal/Mol-Kelvin
 Total                  137.072             39.483             98.123
 Electronic               0.000              0.000              0.000
 Translational            0.889              2.981             41.158
 Rotational               0.889              2.981             30.697
 Vibrational            135.294             33.521             26.268
 Vibration     1          0.598              1.970              4.255
 Vibration     2          0.601              1.959              3.766
 Vibration     3          0.613              1.921              2.904
 Vibration     4          0.633              1.855              2.235
 Vibration     5          0.657              1.779              1.802
 Vibration     6          0.674              1.728              1.596
 Vibration     7          0.705              1.636              1.313
 Vibration     8          0.734              1.556              1.126
 Vibration     9          0.742              1.535              1.083
 Vibration    10          0.807              1.365              0.801
 Vibration    11          0.840              1.286              0.700
 Vibration    12          0.919              1.111              0.517
 Vibration    13          0.935              1.078              0.488

 Optimization completed.
    -- Stationary point found.
 Normal termination of Gaussian 16 at Sun Jul 11 16:36:30 2021.

 ----------------------------------------------------------------------
 #p b3lyp/6-31G(d) scrf=(iefpcm,read,solvent=water) geom=allcheck guess
 =read
 ----------------------------------------------------------------------

 Structure from the checkpoint file:  "SET_328_BBB315_conf1.geo_180_270.chk"
 -----------------------------------------
 SET_328_BBB315_conf1.geo_180_270 geometry
 -----------------------------------------
 Charge =  1 Multiplicity = 1

 SCF Done:  E(RB3LYP) =  -514.317465243     A.U. after    1 cycles
 Normal termination of Gaussian 16 at Sun Jul 11 16:36:35 2021.

 -----------------------------
 #p B3LYP/6-31G* geom=allcheck
 -----------------------------

 Structure from the checkpoint file:  "SET_328_BBB315_conf1.geo_180_270.chk"
 -----------------------------------------
 SET_328_BBB315_conf1.geo_180_270 geometry
 -----------------------------------------
 Charge =  1 Multiplicity = 1

 SCF Done:  E(RB3LYP) =  -514.201476168     A.U. after   14 cycles
 Normal termination of Gaussian 16 at Sun Jul 11 16:36:54 2021.
 Gaussian 16:  ES64L-G16RevB.01 20-Dec-2017

 --------------------------------------------------------
 #p mp2/aug-cc-pVDZ scf=tight maxdisk=180GB geom=allcheck
 --------------------------------------------------------

 Structure from the checkpoint file:  "SET_328_BBB315_conf1.geo_180_270.chk"
 -----------------------------------------
 SET_328_BBB315_conf1.geo_180_270 geometry
 -----------------------------------------
 Charge =  1 Multiplicity = 1

                         Standard orientation:
 ---------------------------------------------------------------------
 Center     Atomic      Atomic             Coordinates (Angstroms)
 Number     Number       Type             X           Y           Z
 ---------------------------------------------------------------------
      1          7           0        4.596172   -0.255844    0.303606
      2          1           0        4.949828    0.712080    0.224771
      3          1           0        4.841743   -0.749706   -0.569364
      4          6           0        3.117586   -0.284290    0.554662
      5          1           0        2.951925    0.207139    1.512258
      6          1           0        2.829767   -1.331253    0.637817
      7          6           0        2.360893    0.410613   -0.575258
      8          1           0        2.634094   -0.055473   -1.529593
      9          1           0        2.652366    1.463783   -0.626717
     10          6           0        0.879807    0.301969   -0.371419
     11          6           0       -0.009345    1.331396   -0.147865
     12          1           0        0.119890    2.398876   -0.074122
     13          7           0       -1.246328    0.733571   -0.017901
     14          6           0       -2.489339    1.271555    0.209051
     15          1           0       -2.537255    2.346490    0.308028
     16          6           0       -3.569275    0.439281    0.295141
     17          1           0       -4.548743    0.866040    0.474935
     18          6           0       -3.406203   -0.967211    0.150205
     19          1           0       -4.272877   -1.614155    0.220573
     20          6           0       -2.162314   -1.504548   -0.077841
     21          1           0       -2.006949   -2.570256   -0.193111
     22          6           0       -1.041640   -0.647494   -0.167142
     23          7           0        0.248595   -0.915904   -0.382461
     24          1           0        5.116116   -0.713961    1.074614
 ---------------------------------------------------------------------

 SCF Done:  E(RHF) =  -510.991234594     A.U. after   16 cycles
 E2 =    -0.1751730930D+01 EUMP2 =    -0.51274296552414D+03

 The electronic state is 1-A.
 Alpha  occ. eigenvalues --  -15.89216 -15.75651 -15.65616 -11.46524 -11.41668
 Alpha  occ. eigenvalues --  -11.39994 -11.39821 -11.38622 -11.37464 -11.35584
 Alpha  occ. eigenvalues --  -11.34551 -11.34489  -1.49901  -1.46654  -1.31927
 Alpha  occ. eigenvalues --   -1.22393  -1.21375  -1.12678  -1.10896  -1.04832
 Alpha  occ. eigenvalues --   -0.96906  -0.95795  -0.94758  -0.94074  -0.89540
 Alpha  occ. eigenvalues --   -0.83893  -0.81904  -0.80226  -0.76674  -0.76101
 Alpha  occ. eigenvalues --   -0.73502  -0.72904  -0.71424  -0.70035  -0.67683
 Alpha  occ. eigenvalues --   -0.67110  -0.63777  -0.62228  -0.56984  -0.54519
 Alpha  occ. eigenvalues --   -0.53622  -0.43059  -0.39131
 Alpha virt. eigenvalues --   -0.10816  -0.07159  -0.07091  -0.05553  -0.03822
 Alpha virt. eigenvalues --   -0.03363  -0.02971  -0.02832  -0.01838  -0.01534
 Alpha virt. eigenvalues --   -0.01431  -0.01014  -0.00465   0.00657   0.01377

 Mulliken charges:
               1
     1  N   -0.576117
     2  H    0.246015
     3  H    0.244310
     4  C    1.066593
     5  H   -0.132810
     6  H   -0.095202
     7  C    0.332417
     8  H    0.006915
     9  H   -0.088270
    10  C    0.310092
    11  C    1.035217
    12  H   -0.470052
    13  N   -0.748308
    14  C    0.674295
    15  H   -0.491098
    16  C    0.780287
    17  H   -0.427694
    18  C   -0.049965
    19  H   -0.409252
    20  C    1.451207
    21  H   -0.477912
    22  C   -0.324462
    23  N   -1.048480
    24  H    0.192275
 Sum of Mulliken charges =   1.00000

 Dipole moment (field-independent basis, Debye):
    X=             14.8390    Y=              1.4120    Z=              1.9499  Tot=             15.0330
 Quadrupole moment (field-independent basis, Debye-Ang):
   XX=             37.6248   YY=            -60.2737   ZZ=            -71.2147
   XY=             -3.6608   XZ=              4.3288   YZ=             -0.4424

 Normal termination of Gaussian 16 at Sun Jul 11 16:42:10 2021.
