 Gaussian 16, Revision B.01,

 -----------------------------------------------------------
 #p b3lyp/6-31G(d) opt freq scrf=(iefpcm,read,solvent=water)
 -----------------------------------------------------------

 ----------------------------------------
 SET_328_BBB87_conf1.geo_285_105 geometry
 ----------------------------------------
 Symbolic Z-matrix:
 Charge =  1 Multiplicity = 1

 SCF Done:  E(RB3LYP) =  -703.482117161     A.U. after   13 cycles
 SCF Done:  E(RB3LYP) =  -703.505455387     A.U. after   12 cycles
 SCF Done:  E(RB3LYP) =  -703.508568110     A.U. after   11 cycles
 SCF Done:  E(RB3LYP) =  -703.509063574     A.U. after   10 cycles
 SCF Done:  E(RB3LYP) =  -703.509261579     A.U. after   10 cycles
 SCF Done:  E(RB3LYP) =  -703.509405678     A.U. after   10 cycles
 SCF Done:  E(RB3LYP) =  -703.509517869     A.U. after   10 cycles
 SCF Done:  E(RB3LYP) =  -703.509562313     A.U. after   11 cycles
 SCF Done:  E(RB3LYP) =  -703.509674682     A.U. after   10 cycles
 SCF Done:  E(RB3LYP) =  -703.510091673     A.U. after   11 cycles
 SCF Done:  E(RB3LYP) =  -703.512398001     A.U. after   10 cycles
 SCF Done:  E(RB3LYP) =  -703.512408604     A.U. after    9 cycles
 SCF Done:  E(RB3LYP) =  -703.512411828     A.U. after    8 cycles
 SCF Done:  E(RB3LYP) =  -703.512414770     A.U. after    9 cycles
 SCF Done:  E(RB3LYP) =  -703.512414912     A.U. after    7 cycles
 SCF Done:  E(RB3LYP) =  -703.512414883     A.U. after    7 cycles
 Optimization completed.
    -- Stationary point found.
 Normal termination of Gaussian 16 at Sun Jul 11 16:27:21 2021.

 --------------------------------------------------------------------
 #P Geom=AllCheck Guess=TCheck SCRF=Check GenChk RB3LYP/6-31G(d) Freq
 --------------------------------------------------------------------

 Structure from the checkpoint file:  "SET_328_BBB87_conf1.geo_285_105.chk"
 ----------------------------------------
 SET_328_BBB87_conf1.geo_285_105 geometry
 ----------------------------------------
 Charge =  1 Multiplicity = 1

 SCF Done:  E(RB3LYP) =  -703.512414883     A.U. after    1 cycles

  Exact polarizability: 127.264  -2.050 114.499  -4.351  -1.190  61.295
 Approx polarizability: 145.541  -6.980 140.975  -6.271  -1.232  70.826

                      1                      2                      3
                      A                      A                      A
 Frequencies --     59.8481               172.6137               178.7218
 Red. masses --      4.1831                 2.7504                 3.2349
 Frc consts  --      0.0088                 0.0483                 0.0609
 IR Inten    --     13.5635                43.8297                11.4718

                      4                      5                      6
                      A                      A                      A
 Frequencies --    267.4526               297.7814               352.1721
 Red. masses --      4.2037                 2.5645                 1.0693
 Frc consts  --      0.1772                 0.1340                 0.0781
 IR Inten    --     32.1667                28.9962                 2.4676

                      7                      8                      9
                      A                      A                      A
 Frequencies --    432.8548               507.8328               582.9151
 Red. masses --      2.4921                 4.4527                 5.0124
 Frc consts  --      0.2751                 0.6766                 1.0035
 IR Inten    --      4.3339                 3.7417                 3.2245

                     10                     11                     12
                      A                      A                      A
 Frequencies --    622.1842               701.8512               749.4014
 Red. masses --      4.8806                 3.0207                 1.2780
 Frc consts  --      1.1132                 0.8767                 0.4229
 IR Inten    --     13.8238                 8.4945                49.4093

                     13                     14                     15
                      A                      A                      A
 Frequencies --    764.3657               855.8755               883.7423
 Red. masses --      7.5379                 2.5304                 2.7483
 Frc consts  --      2.5948                 1.0921                 1.2647
 IR Inten    --      9.3971                 5.9900                51.4024

                     16                     17                     18
                      A                      A                      A
 Frequencies --    898.4390               903.7303               946.3278
 Red. masses --      1.9103                 1.3212                 1.4522
 Frc consts  --      0.9085                 0.6358                 0.7662
 IR Inten    --     42.0317                 2.7148                14.8331

                     19                     20                     21
                      A                      A                      A
 Frequencies --   1026.9615              1087.3934              1102.0557
 Red. masses --      3.0085                 1.6470                 1.3163
 Frc consts  --      1.8694                 1.1474                 0.9419
 IR Inten    --      6.8717               186.5115                37.0803

                     22                     23                     24
                      A                      A                      A
 Frequencies --   1135.8245              1156.3979              1213.2196
 Red. masses --      1.5488                 2.2253                 1.9355
 Frc consts  --      1.1772                 1.7533                 1.6785
 IR Inten    --     16.3117                39.6715                 8.9201

                     25                     26                     27
                      A                      A                      A
 Frequencies --   1284.7207              1351.6746              1359.2742
 Red. masses --      1.2456                 1.8062                 1.3610
 Frc consts  --      1.2113                 1.9443                 1.4816
 IR Inten    --     40.9428                 2.9330                45.1772

                     28                     29                     30
                      A                      A                      A
 Frequencies --   1396.3982              1426.2768              1477.4831
 Red. masses --      1.5129                 1.3702                 1.2627
 Frc consts  --      1.7381                 1.6422                 1.6241
 IR Inten    --     23.5339                30.3907                37.6321

                     31                     32                     33
                      A                      A                      A
 Frequencies --   1498.8248              1512.3824              1517.9215
 Red. masses --      3.4112                 1.1877                 1.1065
 Frc consts  --      4.5151                 1.6005                 1.5021
 IR Inten    --     27.2080               289.8229                12.4738

                     34                     35                     36
                      A                      A                      A
 Frequencies --   1566.6249              1640.5550              1654.1965
 Red. masses --      5.3611                 1.0386                 1.0421
 Frc consts  --      7.7524                 1.6470                 1.6801
 IR Inten    --     39.8308                34.0913                84.0684

                     37                     38                     39
                      A                      A                      A
 Frequencies --   3069.3477              3133.6608              3142.5004
 Red. masses --      1.0689                 1.0847                 1.0700
 Frc consts  --      5.9329                 6.2760                 6.2259
 IR Inten    --     11.4097                 5.7051                42.8211

                     40                     41                     42
                      A                      A                      A
 Frequencies --   3185.6362              3203.1239              3260.9531
 Red. masses --      1.0744                 1.1029                 1.0912
 Frc consts  --      6.4242                 6.6669                 6.8367
 IR Inten    --    432.1427                32.1421                 6.4684

                     43                     44                     45
                      A                      A                      A
 Frequencies --   3294.6596              3427.5263              3476.8526
 Red. masses --      1.0997                 1.0605                 1.0941
 Frc consts  --      7.0328                 7.3401                 7.7922
 IR Inten    --      3.1452               242.4457               215.1736

 - Thermochemistry -
 -------------------
 Temperature   298.150 Kelvin.  Pressure   1.00000 Atm.
 Atom     1 has atomic number  7 and mass  14.00307

 Molecular mass:   129.04865 amu.
 Principal axes and moments of inertia in atomic units:
                           1         2         3
     Eigenvalues --   484.452411553.228171968.92933
           X            0.99984   0.01799  -0.00062
           Y           -0.01799   0.99984  -0.00241
           Z            0.00057   0.00242   1.00000
 This molecule is an asymmetric top.
 Rotational symmetry number  1.
 Warning -- assumption of classical behavior for rotation
           may cause significant error
 Rotational temperatures (Kelvin)      0.17879     0.05576     0.04399
 Rotational constants (GHZ):           3.72532     1.16193     0.91661
 Zero-point vibrational energy     381492.4 (Joules/Mol)
                                   91.17888 (Kcal/Mol)
 Warning -- explicit consideration of   9 degrees of freedom as
           vibrations may cause significant error
 Vibrational temperatures:     86.11   248.35   257.14   384.80   428.44
          (Kelvin)            506.70   622.78   730.66   838.68   895.18
                             1009.81  1078.22  1099.75  1231.41  1271.51
                             1292.65  1300.27  1361.55  1477.57  1564.52
                             1585.61  1634.20  1663.80  1745.55  1848.43
                             1944.76  1955.69  2009.11  2052.09  2125.77
                             2156.47  2175.98  2183.95  2254.02  2360.39
                             2380.02  4416.11  4508.64  4521.36  4583.42
                             4608.58  4691.78  4740.28  4931.45  5002.42

 Zero-point correction=                           0.145303 (Hartree/Particle)
 Thermal correction to Energy=                    0.152992
 Thermal correction to Enthalpy=                  0.153937
 Thermal correction to Gibbs Free Energy=         0.112559
 Sum of electronic and zero-point Energies=           -703.367112
 Sum of electronic and thermal Energies=              -703.359423
 Sum of electronic and thermal Enthalpies=            -703.358478
 Sum of electronic and thermal Free Energies=         -703.399856

                     E (Thermal)             CV                S
                      KCal/Mol        Cal/Mol-Kelvin    Cal/Mol-Kelvin
 Total                   96.004             28.796             87.086
 Electronic               0.000              0.000              0.000
 Translational            0.889              2.981             40.478
 Rotational               0.889              2.981             28.784
 Vibrational             94.227             22.834             17.824
 Vibration     1          0.597              1.973              4.462
 Vibration     2          0.626              1.876              2.407
 Vibration     3          0.629              1.868              2.342
 Vibration     4          0.673              1.733              1.613
 Vibration     5          0.691              1.678              1.429
 Vibration     6          0.729              1.571              1.156
 Vibration     7          0.794              1.399              0.849
 Vibration     8          0.863              1.233              0.639
 Vibration     9          0.940              1.068              0.480

 Optimization completed.
    -- Stationary point found.
 Normal termination of Gaussian 16 at Sun Jul 11 16:28:54 2021.

 ----------------------------------------------------------------------
 #p b3lyp/6-31G(d) scrf=(iefpcm,read,solvent=water) geom=allcheck guess
 =read
 ----------------------------------------------------------------------

 Structure from the checkpoint file:  "SET_328_BBB87_conf1.geo_285_105.chk"
 ----------------------------------------
 SET_328_BBB87_conf1.geo_285_105 geometry
 ----------------------------------------
 Charge =  1 Multiplicity = 1

 SCF Done:  E(RB3LYP) =  -703.512414883     A.U. after    1 cycles
 Normal termination of Gaussian 16 at Sun Jul 11 16:28:57 2021.

 -----------------------------
 #p B3LYP/6-31G* geom=allcheck
 -----------------------------

 Structure from the checkpoint file:  "SET_328_BBB87_conf1.geo_285_105.chk"
 ----------------------------------------
 SET_328_BBB87_conf1.geo_285_105 geometry
 ----------------------------------------
 Charge =  1 Multiplicity = 1

 SCF Done:  E(RB3LYP) =  -703.409876761     A.U. after   15 cycles
 Normal termination of Gaussian 16 at Sun Jul 11 16:29:07 2021.
 Gaussian 16:  ES64L-G16RevB.01 20-Dec-2017

 --------------------------------------------------------
 #p mp2/aug-cc-pVDZ scf=tight maxdisk=180GB geom=allcheck
 --------------------------------------------------------

 Structure from the checkpoint file:  "SET_328_BBB87_conf1.geo_285_105.chk"
 ----------------------------------------
 SET_328_BBB87_conf1.geo_285_105 geometry
 ----------------------------------------
 Charge =  1 Multiplicity = 1

                         Standard orientation:
 ---------------------------------------------------------------------
 Center     Atomic      Atomic             Coordinates (Angstroms)
 Number     Number       Type             X           Y           Z
 ---------------------------------------------------------------------
      1          7           0       -2.721812    0.809117    0.133340
      2          1           0       -3.034543    0.716251    1.109713
      3          1           0       -3.485329    1.253016   -0.398182
      4          6           0       -2.347177   -0.520133   -0.454008
      5          1           0       -2.139570   -0.347425   -1.509586
      6          1           0       -3.215272   -1.169901   -0.362731
      7          6           0       -1.138918   -1.124497    0.262011
      8          1           0       -0.974214   -2.122612   -0.149381
      9          1           0       -1.367730   -1.261584    1.326457
     10          6           0        0.105942   -0.290909    0.114959
     11          7           0        0.101831    1.017253    0.086439
     12          6           0        1.375754    1.529181   -0.035681
     13          1           0        1.514285    2.601413   -0.074228
     14          6           0        2.374992    0.605525   -0.098288
     15          1           0        3.439154    0.765916   -0.192587
     16         16           0        1.704161   -0.990565   -0.008994
     17          1           0       -1.887038    1.434372    0.122005
 ---------------------------------------------------------------------

 SCF Done:  E(RHF) =  -700.831252328     A.U. after   15 cycles
 E2 =    -0.1192979368D+01 EUMP2 =    -0.70202423169650D+03

 The electronic state is 1-A.
 Alpha  occ. eigenvalues --  -92.12973 -15.87530 -15.72737 -11.48031 -11.46772
 Alpha  occ. eigenvalues --  -11.42776 -11.40471 -11.40038  -9.13154  -6.81293
 Alpha  occ. eigenvalues --   -6.81204  -6.81030  -1.49049  -1.42651  -1.24081
 Alpha  occ. eigenvalues --   -1.19911  -1.13685  -1.05284  -0.95448  -0.94546
 Alpha  occ. eigenvalues --   -0.92844  -0.87769  -0.83872  -0.81966  -0.77707
 Alpha  occ. eigenvalues --   -0.74803  -0.73093  -0.70046  -0.68355  -0.67704
 Alpha  occ. eigenvalues --   -0.63288  -0.57792  -0.52500  -0.46724
 Alpha virt. eigenvalues --   -0.10062  -0.07255  -0.06885  -0.05758  -0.04000
 Alpha virt. eigenvalues --   -0.03763  -0.03576  -0.03369  -0.02555  -0.01661
 Alpha virt. eigenvalues --   -0.01320  -0.00078   0.00029   0.01182   0.01704

 Mulliken charges:
               1
     1  N   -0.395683
     2  H    0.239161
     3  H    0.177338
     4  C    0.904032
     5  H   -0.140647
     6  H   -0.102875
     7  C    0.170395
     8  H    0.041479
     9  H    0.030512
    10  C   -0.126590
    11  N   -0.668362
    12  C    0.685887
    13  H   -0.259354
    14  C    0.137594
    15  H   -0.329874
    16  S    0.381334
    17  H    0.255653
 Sum of Mulliken charges =   1.00000

 Dipole moment (field-independent basis, Debye):
    X=             -8.8202    Y=              1.4198    Z=              0.2054  Tot=              8.9361
 Quadrupole moment (field-independent basis, Debye-Ang):
   XX=            -10.6795   YY=            -44.5724   ZZ=            -53.2319
   XY=             -3.1098   XZ=             -1.6768   YZ=             -0.0164

 Normal termination of Gaussian 16 at Sun Jul 11 16:30:27 2021.
