 Gaussian 16, Revision B.01,

 -----------------------------------------------------------
 #p b3lyp/6-31G(d) opt freq scrf=(iefpcm,read,solvent=water)
 -----------------------------------------------------------

 -----------------------------------------
 SET_328_BBB277_conf1.geo_210_060 geometry
 -----------------------------------------
 Symbolic Z-matrix:
 Charge = -1 Multiplicity = 1

 SCF Done:  E(RB3LYP) =  -898.604828491     A.U. after   13 cycles
 SCF Done:  E(RB3LYP) =  -898.650805946     A.U. after   12 cycles
 SCF Done:  E(RB3LYP) =  -898.669004220     A.U. after   12 cycles
 SCF Done:  E(RB3LYP) =  -898.668628333     A.U. after   12 cycles
 SCF Done:  E(RB3LYP) =  -898.672896647     A.U. after   11 cycles
 SCF Done:  E(RB3LYP) =  -898.673651750     A.U. after   11 cycles
 SCF Done:  E(RB3LYP) =  -898.673898224     A.U. after   11 cycles
 SCF Done:  E(RB3LYP) =  -898.674507834     A.U. after   10 cycles
 SCF Done:  E(RB3LYP) =  -898.674676200     A.U. after   10 cycles
 SCF Done:  E(RB3LYP) =  -898.674890903     A.U. after   11 cycles
 SCF Done:  E(RB3LYP) =  -898.675702985     A.U. after   10 cycles
 SCF Done:  E(RB3LYP) =  -898.675702953     A.U. after    4 cycles
 SCF Done:  E(RB3LYP) =  -898.675702944     A.U. after    3 cycles
 SCF Done:  E(RB3LYP) =  -898.675702941     A.U. after    2 cycles
 SCF Done:  E(RB3LYP) =  -898.675661045     A.U. after   10 cycles
 SCF Done:  E(RB3LYP) =  -898.675660359     A.U. after    8 cycles
 Optimization completed on the basis of negligible forces.
    -- Stationary point found.
 Normal termination of Gaussian 16 at Sun Jul 11 17:08:38 2021.

 --------------------------------------------------------------------
 #P Geom=AllCheck Guess=TCheck SCRF=Check GenChk RB3LYP/6-31G(d) Freq
 --------------------------------------------------------------------

 Structure from the checkpoint file:  "SET_328_BBB277_conf1.geo_210_060.chk"
 -----------------------------------------
 SET_328_BBB277_conf1.geo_210_060 geometry
 -----------------------------------------
 Charge = -1 Multiplicity = 1

 SCF Done:  E(RB3LYP) =  -898.675660359     A.U. after    1 cycles

  Exact polarizability: 228.245  13.990 170.192  -8.006 -15.351 117.500
 Approx polarizability: 251.652  17.605 190.846 -13.440 -18.265 130.123

                      1                      2                      3
                      A                      A                      A
 Frequencies --     16.0972                42.7784                44.2410
 Red. masses --      5.6546                 5.6233                 8.4682
 Frc consts  --      0.0009                 0.0061                 0.0098
 IR Inten    --      4.4317                18.4015                 0.9044

                      4                      5                      6
                      A                      A                      A
 Frequencies --     54.3863                95.9164               135.6647
 Red. masses --      5.6983                 5.7085                 4.0879
 Frc consts  --      0.0099                 0.0309                 0.0443
 IR Inten    --      4.3878                 0.3478                16.5089

                      7                      8                      9
                      A                      A                      A
 Frequencies --    169.5133               177.0746               201.3015
 Red. masses --      1.0943                 4.3016                 8.5314
 Frc consts  --      0.0185                 0.0795                 0.2037
 IR Inten    --      0.4504                 1.3599                 3.2620

                     10                     11                     12
                      A                      A                      A
 Frequencies --    230.4166               248.0043               257.9539
 Red. masses --      2.1730                 3.5917                 2.1430
 Frc consts  --      0.0680                 0.1302                 0.0840
 IR Inten    --     54.4728                54.7951                52.7735

                     13                     14                     15
                      A                      A                      A
 Frequencies --    266.8222               292.7776               302.8031
 Red. masses --      2.7708                 3.4260                 4.5412
 Frc consts  --      0.1162                 0.1730                 0.2453
 IR Inten    --     34.9816                 3.8282                24.4383

                     16                     17                     18
                      A                      A                      A
 Frequencies --    345.0797               411.5774               435.9218
 Red. masses --      4.3279                 3.2763                 7.5708
 Frc consts  --      0.3036                 0.3270                 0.8476
 IR Inten    --      5.2755                 6.3537                17.9546

                     19                     20                     21
                      A                      A                      A
 Frequencies --    440.5489               494.2450               507.0085
 Red. masses --      4.2618                 4.4349                 7.0957
 Frc consts  --      0.4873                 0.6383                 1.0747
 IR Inten    --     32.6342                 2.4571                18.8155

                     22                     23                     24
                      A                      A                      A
 Frequencies --    554.7357               580.8445               614.8281
 Red. masses --      3.1886                 5.1766                 5.0129
 Frc consts  --      0.5781                 1.0290                 1.1165
 IR Inten    --      8.9683                10.7212                18.9161

                     25                     26                     27
                      A                      A                      A
 Frequencies --    674.0823               682.8116               754.8591
 Red. masses --      5.2066                 4.3346                 6.4886
 Frc consts  --      1.3939                 1.1907                 2.1784
 IR Inten    --     29.7924                 3.3842                15.4717

                     28                     29                     30
                      A                      A                      A
 Frequencies --    764.7332               775.8653               782.4995
 Red. masses --     11.8720                 7.7020                 7.5513
 Frc consts  --      4.0907                 2.7317                 2.7242
 IR Inten    --     49.9716                14.0619                34.4974

                     31                     32                     33
                      A                      A                      A
 Frequencies --    860.4859               897.6528               904.5058
 Red. masses --      2.9672                 1.4498                 2.5548
 Frc consts  --      1.2944                 0.6883                 1.2315
 IR Inten    --     22.6218                22.4421                20.7264

                     34                     35                     36
                      A                      A                      A
 Frequencies --    912.5854               951.9303              1007.8069
 Red. masses --      3.2093                 3.2949                 1.9759
 Frc consts  --      1.5748                 1.7592                 1.1824
 IR Inten    --     29.7295               125.7013                70.5330

                     37                     38                     39
                      A                      A                      A
 Frequencies --   1010.4565              1038.1386              1043.5386
 Red. masses --      2.1750                 2.8777                 2.4228
 Frc consts  --      1.3084                 1.8273                 1.5545
 IR Inten    --     80.0348               141.5582               109.2711

                     40                     41                     42
                      A                      A                      A
 Frequencies --   1071.9398              1091.5558              1097.7955
 Red. masses --      1.4422                 4.6832                 3.3615
 Frc consts  --      0.9764                 3.2876                 2.3869
 IR Inten    --      4.7421               131.3180                53.4947

                     43                     44                     45
                      A                      A                      A
 Frequencies --   1126.7381              1131.6851              1146.1906
 Red. masses --      3.0161                 2.9149                 2.9530
 Frc consts  --      2.2560                 2.1995                 2.2857
 IR Inten    --    148.7343                54.7900               116.0572

                     46                     47                     48
                      A                      A                      A
 Frequencies --   1194.2230              1210.3591              1234.8886
 Red. masses --      2.0774                 1.9138                 1.2548
 Frc consts  --      1.7455                 1.6518                 1.1274
 IR Inten    --    106.8009                17.7047               127.7394

                     49                     50                     51
                      A                      A                      A
 Frequencies --   1265.8486              1270.1494              1306.3419
 Red. masses --      1.1399                 1.7306                 2.0048
 Frc consts  --      1.0762                 1.6449                 2.0158
 IR Inten    --     12.2784                52.5995               136.6234

                     52                     53                     54
                      A                      A                      A
 Frequencies --   1321.2194              1323.9005              1358.5284
 Red. masses --      2.8599                 1.5484                 1.3028
 Frc consts  --      2.9414                 1.5989                 1.4166
 IR Inten    --    116.2698                87.7043                 9.6761

                     55                     56                     57
                      A                      A                      A
 Frequencies --   1359.4762              1375.0183              1410.7138
 Red. masses --      3.0634                 1.2495                 1.4135
 Frc consts  --      3.3358                 1.3919                 1.6574
 IR Inten    --    465.1687                10.9536                 4.7492

                     58                     59                     60
                      A                      A                      A
 Frequencies --   1419.2860              1423.7034              1428.1137
 Red. masses --      1.8661                 1.4325                 1.3231
 Frc consts  --      2.2147                 1.7107                 1.5899
 IR Inten    --     51.1986                23.5256                 3.3070

                     61                     62                     63
                      A                      A                      A
 Frequencies --   1472.2257              1474.9525              1487.9643
 Red. masses --      1.6034                 2.1126                 1.0533
 Frc consts  --      2.0475                 2.7078                 1.3740
 IR Inten    --     22.4230               154.1732                 7.4533

                     64                     65                     66
                      A                      A                      A
 Frequencies --   1507.7069              1510.0546              1530.9690
 Red. masses --      1.1337                 1.1443                 1.0844
 Frc consts  --      1.5184                 1.5374                 1.4975
 IR Inten    --     44.0461                17.4179                 7.9591

                     67                     68                     69
                      A                      A                      A
 Frequencies --   1595.6592              1689.8159              1723.9537
 Red. masses --     11.9643                11.6740                 6.8155
 Frc consts  --     17.9480                19.6404                11.9344
 IR Inten    --   1697.5631               375.8742               528.0117

                     70                     71                     72
                      A                      A                      A
 Frequencies --   3016.5418              3048.2613              3051.0465
 Red. masses --      1.0560                 1.0370                 1.1077
 Frc consts  --      5.6615                 5.6773                 6.0751
 IR Inten    --     78.4348                74.1756                91.0164

                     73                     74                     75
                      A                      A                      A
 Frequencies --   3077.6622              3095.6192              3096.2890
 Red. masses --      1.0857                 1.0644                 1.1005
 Frc consts  --      6.0590                 6.0099                 6.2160
 IR Inten    --     67.0605                15.3393                42.4670

                     76                     77                     78
                      A                      A                      A
 Frequencies --   3131.1944              3131.4077              3145.9926
 Red. masses --      1.1017                 1.0868                 1.0866
 Frc consts  --      6.3638                 6.2787                 6.3364
 IR Inten    --     43.6654                26.3379                 5.1127

                     79                     80                     81
                      A                      A                      A
 Frequencies --   3164.4421              3230.6478              3737.0651
 Red. masses --      1.1011                 1.0917                 1.0667
 Frc consts  --      6.4963                 6.7132                 8.7771
 IR Inten    --     42.1981                14.2552               105.7641

 - Thermochemistry -
 -------------------
 Temperature   298.150 Kelvin.  Pressure   1.00000 Atm.
 Atom     1 has atomic number  6 and mass  12.00000

 Molecular mass:   243.07811 amu.
 Principal axes and moments of inertia in atomic units:
                           1         2         3
     Eigenvalues --  1977.755116988.177367994.64497
           X            0.99956   0.02925   0.00386
           Y           -0.02918   0.99941  -0.01809
           Z           -0.00439   0.01797   0.99983
 This molecule is an asymmetric top.
 Rotational symmetry number  1.
 Warning -- assumption of classical behavior for rotation
           may cause significant error
 Rotational temperatures (Kelvin)      0.04379     0.01239     0.01083
 Rotational constants (GHZ):           0.91252     0.25826     0.22574
 Zero-point vibrational energy     588979.2 (Joules/Mol)
                                  140.76942 (Kcal/Mol)
 Warning -- explicit consideration of  24 degrees of freedom as
           vibrations may cause significant error
 Vibrational temperatures:     23.16    61.55    63.65    78.25   138.00
          (Kelvin)            195.19   243.89   254.77   289.63   331.52
                              356.82   371.14   383.90   421.24   435.67
                              496.49   592.17   627.19   633.85   711.11
                              729.47   798.14   835.71   884.60   969.85
                              982.41  1086.07  1100.28  1116.30  1125.84
                             1238.05  1291.52  1301.38  1313.01  1369.62
                             1450.01  1453.82  1493.65  1501.42  1542.28
                             1570.51  1579.48  1621.12  1628.24  1649.11
                             1718.22  1741.44  1776.73  1821.27  1827.46
                             1879.53  1900.94  1904.80  1954.62  1955.98
                             1978.34  2029.70  2042.04  2048.39  2054.74
                             2118.20  2122.13  2140.85  2169.25  2172.63
                             2202.72  2295.80  2431.27  2480.38  4340.13
                             4385.77  4389.78  4428.07  4453.91  4454.87
                             4505.09  4505.40  4526.38  4552.93  4648.18
                             5376.80

 Zero-point correction=                           0.224330 (Hartree/Particle)
 Thermal correction to Energy=                    0.240063
 Thermal correction to Enthalpy=                  0.241007
 Thermal correction to Gibbs Free Energy=         0.179040
 Sum of electronic and zero-point Energies=           -898.451330
 Sum of electronic and thermal Energies=              -898.435598
 Sum of electronic and thermal Enthalpies=            -898.434653
 Sum of electronic and thermal Free Energies=         -898.496621

                     E (Thermal)             CV                S
                      KCal/Mol        Cal/Mol-Kelvin    Cal/Mol-Kelvin
 Total                  150.642             57.972            130.421
 Electronic               0.000              0.000              0.000
 Translational            0.889              2.981             42.366
 Rotational               0.889              2.981             33.068
 Vibrational            148.864             52.011             54.987
 Vibration     1          0.593              1.986              7.065
 Vibration     2          0.595              1.980              5.126
 Vibration     3          0.595              1.980              5.060
 Vibration     4          0.596              1.976              4.651
 Vibration     5          0.603              1.952              3.536
 Vibration     6          0.613              1.918              2.864
 Vibration     7          0.625              1.880              2.441
 Vibration     8          0.628              1.871              2.359
 Vibration     9          0.638              1.838              2.121
 Vibration    10          0.652              1.795              1.876
 Vibration    11          0.662              1.766              1.745
 Vibration    12          0.667              1.749              1.676
 Vibration    13          0.672              1.734              1.617
 Vibration    14          0.688              1.687              1.458
 Vibration    15          0.694              1.668              1.401
 Vibration    16          0.723              1.585              1.189
 Vibration    17          0.776              1.445              0.921
 Vibration    18          0.796              1.392              0.840
 Vibration    19          0.800              1.382              0.825
 Vibration    20          0.850              1.263              0.673
 Vibration    21          0.862              1.234              0.641
 Vibration    22          0.910              1.129              0.534
 Vibration    23          0.938              1.073              0.484
 Vibration    24          0.974              1.001              0.425

 Optimization completed.
    -- Stationary point found.
 Normal termination of Gaussian 16 at Sun Jul 11 17:17:02 2021.

 ----------------------------------------------------------------------
 #p b3lyp/6-31G(d) scrf=(iefpcm,read,solvent=water) geom=allcheck guess
 =read
 ----------------------------------------------------------------------

 Structure from the checkpoint file:  "SET_328_BBB277_conf1.geo_210_060.chk"
 -----------------------------------------
 SET_328_BBB277_conf1.geo_210_060 geometry
 -----------------------------------------
 Charge = -1 Multiplicity = 1

 SCF Done:  E(RB3LYP) =  -898.675660359     A.U. after    1 cycles
 Normal termination of Gaussian 16 at Sun Jul 11 17:17:09 2021.

 -----------------------------
 #p B3LYP/6-31G* geom=allcheck
 -----------------------------

 Structure from the checkpoint file:  "SET_328_BBB277_conf1.geo_210_060.chk"
 -----------------------------------------
 SET_328_BBB277_conf1.geo_210_060 geometry
 -----------------------------------------
 Charge = -1 Multiplicity = 1

 SCF Done:  E(RB3LYP) =  -898.561495121     A.U. after   17 cycles
 Normal termination of Gaussian 16 at Sun Jul 11 17:17:49 2021.
 Gaussian 16:  ES64L-G16RevB.01 20-Dec-2017

 --------------------------------------------------------
 #p mp2/aug-cc-pVDZ scf=tight maxdisk=180GB geom=allcheck
 --------------------------------------------------------

 Structure from the checkpoint file:  "SET_328_BBB277_conf1.geo_210_060.chk"
 -----------------------------------------
 SET_328_BBB277_conf1.geo_210_060 geometry
 -----------------------------------------
 Charge = -1 Multiplicity = 1

                         Standard orientation:
 ---------------------------------------------------------------------
 Center     Atomic      Atomic             Coordinates (Angstroms)
 Number     Number       Type             X           Y           Z
 ---------------------------------------------------------------------
      1          6           0        3.353075    2.251580   -0.674780
      2          1           0        3.882333    2.156774   -1.629812
      3          1           0        4.102905    2.547733    0.067351
      4          1           0        2.625392    3.062148   -0.769246
      5          6           0        2.680692    0.967039   -0.288151
      6          6           0        3.486388   -0.246289   -0.075116
      7          7           0        2.859015   -1.420054    0.250342
      8          6           0        1.520272   -1.505584    0.394829
      9          8           0        0.928648   -2.566320    0.680396
     10          8           0        4.733665   -0.200180   -0.196232
     11          6           0        1.344722    0.861184   -0.127833
     12          1           0        0.672645    1.697518   -0.280838
     13          7           0        0.740911   -0.324094    0.226744
     14          6           0       -0.698677   -0.389521    0.334627
     15          8           0       -1.279631   -0.024829   -0.932404
     16          1           0       -0.925994   -1.428695    0.569916
     17          6           0       -1.330284    0.576416    1.340227
     18          1           0       -0.822257    1.544545    1.304098
     19          1           0       -1.294917    0.197246    2.362171
     20          6           0       -2.739536    0.757440    0.794076
     21          9           0       -3.225461    2.048159    1.039781
     22          1           0       -3.453286    0.055298    1.227486
     23          6           0       -2.591726    0.521280   -0.725755
     24          1           0       -2.648039    1.486546   -1.240637
     25          6           0       -3.654378   -0.404426   -1.293136
     26          1           0       -3.439548   -0.594056   -2.354331
     27          1           0       -4.627154    0.104168   -1.232234
     28          8           0       -3.647403   -1.609231   -0.539712
     29          1           0       -4.347921   -2.183858   -0.891870
 ---------------------------------------------------------------------

 SCF Done:  E(RHF) =  -893.618337684     A.U. after   15 cycles
 E2 =    -0.2729316048D+01 EUMP2 =    -0.89634765373221D+03

 The electronic state is 1-A.
 Alpha  occ. eigenvalues --  -26.21593 -20.50639 -20.47590 -20.34942 -20.34452
 Alpha  occ. eigenvalues --  -15.47036 -15.35979 -11.23917 -11.21832 -11.21647
 Alpha  occ. eigenvalues --  -11.21392 -11.21343 -11.17585 -11.16019 -11.14827
 Alpha  occ. eigenvalues --  -11.10852 -11.09760  -1.51532  -1.30853  -1.28802
 Alpha  occ. eigenvalues --   -1.21889  -1.17828  -1.12374  -1.01115  -0.98463
 Alpha  occ. eigenvalues --   -0.95103  -0.92884  -0.83551  -0.80563  -0.74553
 Alpha  occ. eigenvalues --   -0.72566  -0.71378  -0.66849  -0.64976  -0.62447
 Alpha  occ. eigenvalues --   -0.61057  -0.59274  -0.57502  -0.57051  -0.55077
 Alpha  occ. eigenvalues --   -0.53790  -0.52103  -0.50841  -0.49283  -0.47864
 Alpha  occ. eigenvalues --   -0.46090  -0.45573  -0.44152  -0.43641  -0.43134
 Alpha  occ. eigenvalues --   -0.42466  -0.41164  -0.40695  -0.39791  -0.39301
 Alpha  occ. eigenvalues --   -0.37315  -0.35211  -0.33837  -0.31610  -0.28055
 Alpha  occ. eigenvalues --   -0.25211  -0.22853  -0.18697  -0.17991
 Alpha virt. eigenvalues --    0.08982   0.10424   0.11217   0.11478   0.12463
 Alpha virt. eigenvalues --    0.13116   0.13478   0.14617   0.15136   0.15519
 Alpha virt. eigenvalues --    0.16738   0.16926   0.18421   0.19073   0.19793

 Mulliken charges:
               1
     1  C    0.487787
     2  H    0.069957
     3  H    0.062822
     4  H   -0.172357
     5  C    0.191298
     6  C    0.667579
     7  N   -0.857969
     8  C    0.988485
     9  O   -0.927856
    10  O   -1.070067
    11  C    1.092826
    12  H   -0.675293
    13  N   -0.830467
    14  C    1.224758
    15  O   -1.200098
    16  H   -0.432740
    17  C    0.028856
    18  H   -0.168351
    19  H   -0.115386
    20  C    1.375602
    21  F   -0.796562
    22  H   -0.281955
    23  C    0.322128
    24  H   -0.285075
    25  C    1.115434
    26  H   -0.116418
    27  H   -0.127530
    28  O   -0.729591
    29  H    0.160183
 Sum of Mulliken charges =  -1.00000

 Dipole moment (field-independent basis, Debye):
    X=            -16.2405    Y=              6.6744    Z=             -1.6583  Tot=             17.6367
 Quadrupole moment (field-independent basis, Debye-Ang):
   XX=           -161.4136   YY=           -126.8718   ZZ=           -101.7368
   XY=             24.1282   XZ=              6.4403   YZ=              3.6075

 Normal termination of Gaussian 16 at Sun Jul 11 17:45:00 2021.
