 Gaussian 16, Revision B.01,

 -----------------------------------------------------------
 #p b3lyp/6-31G(d) opt freq scrf=(iefpcm,read,solvent=water)
 -----------------------------------------------------------

 -----------------------------------------
 SET_328_BBB277_conf1.geo_210_285 geometry
 -----------------------------------------
 Symbolic Z-matrix:
 Charge = -1 Multiplicity = 1

 SCF Done:  E(RB3LYP) =  -898.609157331     A.U. after   13 cycles
 SCF Done:  E(RB3LYP) =  -898.653096140     A.U. after   12 cycles
 SCF Done:  E(RB3LYP) =  -898.669678119     A.U. after   11 cycles
 SCF Done:  E(RB3LYP) =  -898.670030415     A.U. after   11 cycles
 SCF Done:  E(RB3LYP) =  -898.671554293     A.U. after   11 cycles
 SCF Done:  E(RB3LYP) =  -898.672361855     A.U. after   10 cycles
 SCF Done:  E(RB3LYP) =  -898.674038627     A.U. after   11 cycles
 SCF Done:  E(RB3LYP) =  -898.672599600     A.U. after   13 cycles
 SCF Done:  E(RB3LYP) =  -898.675206810     A.U. after   11 cycles
 SCF Done:  E(RB3LYP) =  -898.675475806     A.U. after   10 cycles
 SCF Done:  E(RB3LYP) =  -898.675825147     A.U. after    9 cycles
 SCF Done:  E(RB3LYP) =  -898.675795050     A.U. after   10 cycles
 SCF Done:  E(RB3LYP) =  -898.675822813     A.U. after   10 cycles
 SCF Done:  E(RB3LYP) =  -898.675831027     A.U. after    9 cycles
 SCF Done:  E(RB3LYP) =  -898.675831191     A.U. after    8 cycles
 SCF Done:  E(RB3LYP) =  -898.675831402     A.U. after    7 cycles
 Optimization completed.
    -- Stationary point found.
 Normal termination of Gaussian 16 at Sun Jul 11 16:58:50 2021.

 --------------------------------------------------------------------
 #P Geom=AllCheck Guess=TCheck SCRF=Check GenChk RB3LYP/6-31G(d) Freq
 --------------------------------------------------------------------

 Structure from the checkpoint file:  "SET_328_BBB277_conf1.geo_210_285.chk"
 -----------------------------------------
 SET_328_BBB277_conf1.geo_210_285 geometry
 -----------------------------------------
 Charge = -1 Multiplicity = 1

 SCF Done:  E(RB3LYP) =  -898.675831402     A.U. after    1 cycles

  Exact polarizability: 219.001  19.927 181.526 -11.069  -2.007 115.522
 Approx polarizability: 240.367  27.458 204.543 -15.837  -0.124 129.062

                      1                      2                      3
                      A                      A                      A
 Frequencies --     34.0640                38.1398                48.6575
 Red. masses --      5.5008                 6.3613                 8.2856
 Frc consts  --      0.0038                 0.0055                 0.0116
 IR Inten    --      0.1455                16.4545                 0.3904

                      4                      5                      6
                      A                      A                      A
 Frequencies --     81.9364                94.2988               120.6680
 Red. masses --      6.2350                 5.8432                 3.3824
 Frc consts  --      0.0247                 0.0306                 0.0290
 IR Inten    --      3.5139                 6.2459                15.9992

                      7                      8                      9
                      A                      A                      A
 Frequencies --    173.1306               191.2817               195.1631
 Red. masses --      2.9395                 2.2056                 1.5277
 Frc consts  --      0.0519                 0.0475                 0.0343
 IR Inten    --      8.6199                 1.1082                 1.4648

                     10                     11                     12
                      A                      A                      A
 Frequencies --    205.1649               258.4801               267.2739
 Red. masses --      7.5211                 4.8471                 5.6988
 Frc consts  --      0.1865                 0.1908                 0.2399
 IR Inten    --      1.3680                 6.9739                32.1481

                     13                     14                     15
                      A                      A                      A
 Frequencies --    276.7652               292.2246               305.7382
 Red. masses --      1.6916                 3.3826                 2.6600
 Frc consts  --      0.0763                 0.1702                 0.1465
 IR Inten    --    102.1280                13.3122                58.1516

                     16                     17                     18
                      A                      A                      A
 Frequencies --    366.4212               397.0208               432.9361
 Red. masses --      2.8624                 3.8271                 8.3999
 Frc consts  --      0.2264                 0.3554                 0.9276
 IR Inten    --     34.6646                 4.7914                26.3234

                     19                     20                     21
                      A                      A                      A
 Frequencies --    442.1651               500.8363               506.9460
 Red. masses --      4.2972                 5.0838                 4.6492
 Frc consts  --      0.4950                 0.7513                 0.7040
 IR Inten    --     15.7480                26.0297                 2.3973

                     22                     23                     24
                      A                      A                      A
 Frequencies --    547.2307               559.9436               573.0122
 Red. masses --      2.7771                 5.0532                 5.5649
 Frc consts  --      0.4900                 0.9335                 1.0766
 IR Inten    --      5.4663                 4.7727                32.9183

                     25                     26                     27
                      A                      A                      A
 Frequencies --    629.9365               688.3140               740.9471
 Red. masses --      5.3668                 4.0623                 6.4769
 Frc consts  --      1.2548                 1.1340                 2.0950
 IR Inten    --      4.3277                 7.5259                14.3875

                     28                     29                     30
                      A                      A                      A
 Frequencies --    763.5644               773.9413               781.2368
 Red. masses --     11.9085                 7.6957                 7.7082
 Frc consts  --      4.0907                 2.7159                 2.7719
 IR Inten    --     53.8175                11.3781                27.1216

                     31                     32                     33
                      A                      A                      A
 Frequencies --    847.4338               900.2000               903.8424
 Red. masses --      2.8315                 3.2402                 1.3827
 Frc consts  --      1.1980                 1.5470                 0.6655
 IR Inten    --     16.2625                31.4248                17.1911

                     34                     35                     36
                      A                      A                      A
 Frequencies --    931.2249               958.5885              1000.5775
 Red. masses --      1.8796                 3.1643                 2.9464
 Frc consts  --      0.9603                 1.7131                 1.7380
 IR Inten    --      6.4845               243.5493                74.8638

                     37                     38                     39
                      A                      A                      A
 Frequencies --   1031.5437              1049.0958              1067.1637
 Red. masses --      2.0939                 2.5058                 2.1866
 Frc consts  --      1.3128                 1.6249                 1.4672
 IR Inten    --     73.9798               186.4796               168.2050

                     40                     41                     42
                      A                      A                      A
 Frequencies --   1068.9374              1093.6129              1107.4282
 Red. masses --      2.0321                 3.1570                 3.7431
 Frc consts  --      1.3680                 2.2246                 2.7047
 IR Inten    --    137.2186                64.1738                14.7443

                     43                     44                     45
                      A                      A                      A
 Frequencies --   1127.0610              1130.5927              1148.3526
 Red. masses --      2.9982                 3.3232                 2.6800
 Frc consts  --      2.2439                 2.5028                 2.0823
 IR Inten    --     38.7996                64.2896                54.8795

                     46                     47                     48
                      A                      A                      A
 Frequencies --   1186.7589              1206.7065              1242.1223
 Red. masses --      1.6877                 3.0683                 1.3352
 Frc consts  --      1.4005                 2.6324                 1.2137
 IR Inten    --    125.1070                59.0851                21.3018

                     49                     50                     51
                      A                      A                      A
 Frequencies --   1274.6455              1295.7293              1303.7538
 Red. masses --      1.9987                 1.2466                 2.0069
 Frc consts  --      1.9133                 1.2331                 2.0099
 IR Inten    --     50.0896                12.4913               148.5028

                     52                     53                     54
                      A                      A                      A
 Frequencies --   1323.7010              1361.7549              1369.6017
 Red. masses --      5.0712                 2.4117                 1.4135
 Frc consts  --      5.2353                 2.6350                 1.5622
 IR Inten    --    271.5871               387.5566                16.8671

                     55                     56                     57
                      A                      A                      A
 Frequencies --   1372.2917              1399.0239              1413.0191
 Red. masses --      1.1974                 1.2413                 1.4217
 Frc consts  --      1.3286                 1.4315                 1.6725
 IR Inten    --     13.9484                31.2442                28.3531

                     58                     59                     60
                      A                      A                      A
 Frequencies --   1422.0346              1424.3041              1427.8000
 Red. masses --      1.4773                 1.4079                 1.3290
 Frc consts  --      1.7601                 1.6828                 1.5963
 IR Inten    --     37.3779                17.6420                12.3922

                     61                     62                     63
                      A                      A                      A
 Frequencies --   1444.6403              1478.2784              1486.9999
 Red. masses --      1.4996                 2.1002                 1.0477
 Frc consts  --      1.8439                 2.7041                 1.3649
 IR Inten    --     26.1200               159.2715                 7.1580

                     64                     65                     66
                      A                      A                      A
 Frequencies --   1508.5756              1512.6613              1519.1178
 Red. masses --      1.1793                 1.0976                 1.1216
 Frc consts  --      1.5813                 1.4798                 1.5250
 IR Inten    --     67.4947                 2.0025                 3.3004

                     67                     68                     69
                      A                      A                      A
 Frequencies --   1594.0926              1688.4478              1724.3795
 Red. masses --     11.7615                11.6735                 6.6437
 Frc consts  --     17.6092                19.6077                11.6393
 IR Inten    --   1709.8243               378.2069               511.4210

                     70                     71                     72
                      A                      A                      A
 Frequencies --   3013.5332              3021.2467              3047.7037
 Red. masses --      1.0720                 1.0798                 1.0365
 Frc consts  --      5.7359                 5.8069                 5.6723
 IR Inten    --     71.1263                81.6303                72.4728

                     73                     74                     75
                      A                      A                      A
 Frequencies --   3093.4783              3096.3832              3099.1242
 Red. masses --      1.0803                 1.1010                 1.0702
 Frc consts  --      6.0912                 6.2196                 6.0564
 IR Inten    --     23.3877                42.3629                37.6785

                     76                     77                     78
                      A                      A                      A
 Frequencies --   3110.5312              3129.2591              3153.5261
 Red. masses --      1.0952                 1.1019                 1.0890
 Frc consts  --      6.2435                 6.3574                 6.3810
 IR Inten    --     72.2419                43.4856                 5.2636

                     79                     80                     81
                      A                      A                      A
 Frequencies --   3167.1057              3228.6004              3725.2827
 Red. masses --      1.0991                 1.0917                 1.0663
 Frc consts  --      6.4956                 6.7046                 8.7187
 IR Inten    --     37.8210                15.8543                72.8401

 - Thermochemistry -
 -------------------
 Temperature   298.150 Kelvin.  Pressure   1.00000 Atm.
 Atom     1 has atomic number  6 and mass  12.00000

 Molecular mass:   243.07811 amu.
 Principal axes and moments of inertia in atomic units:
                           1         2         3
     Eigenvalues --  2222.527747404.155617683.88987
           X            0.99976   0.02048   0.00830
           Y           -0.01970   0.99619  -0.08496
           Z           -0.01001   0.08477   0.99635
 This molecule is an asymmetric top.
 Rotational symmetry number  1.
 Warning -- assumption of classical behavior for rotation
           may cause significant error
 Rotational temperatures (Kelvin)      0.03897     0.01170     0.01127
 Rotational constants (GHZ):           0.81202     0.24375     0.23487
 Zero-point vibrational energy     589276.3 (Joules/Mol)
                                  140.84042 (Kcal/Mol)
 Warning -- explicit consideration of  24 degrees of freedom as
           vibrations may cause significant error
 Vibrational temperatures:     49.01    54.87    70.01   117.89   135.67
          (Kelvin)            173.61   249.10   275.21   280.80   295.19
                              371.90   384.55   398.20   420.45   439.89
                              527.20   571.22   622.90   636.18   720.59
                              729.38   787.34   805.63   824.44   906.34
                              990.33  1066.06  1098.60  1113.53  1124.03
                             1219.27  1295.19  1300.43  1339.82  1379.20
                             1439.61  1484.16  1509.41  1535.41  1537.96
                             1573.47  1593.34  1621.59  1626.67  1652.22
                             1707.48  1736.18  1787.14  1833.93  1864.27
                             1875.81  1904.51  1959.26  1970.55  1974.42
                             2012.88  2033.02  2045.99  2049.26  2054.29
                             2078.52  2126.91  2139.46  2170.50  2176.38
                             2185.67  2293.54  2429.30  2481.00  4335.80
                             4346.90  4384.97  4450.83  4455.00  4458.95
                             4475.36  4502.31  4537.22  4556.76  4645.24
                             5359.85

 Zero-point correction=                           0.224444 (Hartree/Particle)
 Thermal correction to Energy=                    0.240127
 Thermal correction to Enthalpy=                  0.241071
 Thermal correction to Gibbs Free Energy=         0.179993
 Sum of electronic and zero-point Energies=           -898.451388
 Sum of electronic and thermal Energies=              -898.435705
 Sum of electronic and thermal Enthalpies=            -898.434760
 Sum of electronic and thermal Free Energies=         -898.495838

                     E (Thermal)             CV                S
                      KCal/Mol        Cal/Mol-Kelvin    Cal/Mol-Kelvin
 Total                  150.682             58.063            128.549
 Electronic               0.000              0.000              0.000
 Translational            0.889              2.981             42.366
 Rotational               0.889              2.981             33.202
 Vibrational            148.904             52.101             52.981
 Vibration     1          0.594              1.983              5.577
 Vibration     2          0.594              1.982              5.353
 Vibration     3          0.595              1.978              4.871
 Vibration     4          0.600              1.962              3.844
 Vibration     5          0.603              1.953              3.569
 Vibration     6          0.609              1.932              3.090
 Vibration     7          0.627              1.876              2.401
 Vibration     8          0.634              1.852              2.215
 Vibration     9          0.636              1.847              2.178
 Vibration    10          0.640              1.833              2.086
 Vibration    11          0.667              1.748              1.672
 Vibration    12          0.672              1.733              1.614
 Vibration    13          0.678              1.716              1.554
 Vibration    14          0.688              1.688              1.461
 Vibration    15          0.696              1.663              1.385
 Vibration    16          0.739              1.541              1.095
 Vibration    17          0.764              1.477              0.974
 Vibration    18          0.794              1.398              0.849
 Vibration    19          0.802              1.378              0.820
 Vibration    20          0.856              1.248              0.656
 Vibration    21          0.862              1.235              0.641
 Vibration    22          0.902              1.146              0.550
 Vibration    23          0.916              1.118              0.524
 Vibration    24          0.929              1.090              0.498

                           ! Non-Optimized Parameters !
 Normal termination of Gaussian 16 at Sun Jul 11 17:07:05 2021.

 ----------------------------------------------------------------------
 #p b3lyp/6-31G(d) scrf=(iefpcm,read,solvent=water) geom=allcheck guess
 =read
 ----------------------------------------------------------------------

 Structure from the checkpoint file:  "SET_328_BBB277_conf1.geo_210_285.chk"
 -----------------------------------------
 SET_328_BBB277_conf1.geo_210_285 geometry
 -----------------------------------------
 Charge = -1 Multiplicity = 1

 SCF Done:  E(RB3LYP) =  -898.675831402     A.U. after    1 cycles
 Normal termination of Gaussian 16 at Sun Jul 11 17:07:13 2021.

 -----------------------------
 #p B3LYP/6-31G* geom=allcheck
 -----------------------------

 Structure from the checkpoint file:  "SET_328_BBB277_conf1.geo_210_285.chk"
 -----------------------------------------
 SET_328_BBB277_conf1.geo_210_285 geometry
 -----------------------------------------
 Charge = -1 Multiplicity = 1

 SCF Done:  E(RB3LYP) =  -898.562413358     A.U. after   16 cycles

 The electronic state is 1-A.
 Alpha  occ. eigenvalues --  -24.59924 -19.07018 -19.04905 -18.92443 -18.91444
 Alpha  occ. eigenvalues --  -14.22936 -14.11248 -10.18502 -10.15636 -10.15627
 Alpha  occ. eigenvalues --  -10.15370 -10.12572 -10.10031 -10.09067 -10.08917
 Alpha  occ. eigenvalues --  -10.05537 -10.03950  -1.10507  -0.95012  -0.93475
 Alpha  occ. eigenvalues --   -0.86376  -0.81789  -0.79160  -0.70426  -0.69880
 Alpha  occ. eigenvalues --   -0.66540  -0.64517  -0.58350  -0.55437  -0.52169
 Alpha  occ. eigenvalues --   -0.50393  -0.48076  -0.44229  -0.43222  -0.42809
 Alpha  occ. eigenvalues --   -0.41684  -0.37820  -0.37483  -0.36598  -0.35712
 Alpha  occ. eigenvalues --   -0.35134  -0.32830  -0.31887  -0.30575  -0.29308
 Alpha  occ. eigenvalues --   -0.28551  -0.27410  -0.26957  -0.26065  -0.25910
 Alpha  occ. eigenvalues --   -0.25401  -0.24788  -0.23722  -0.21659  -0.21042
 Alpha  occ. eigenvalues --   -0.19592  -0.18902  -0.17467  -0.15538  -0.08656
 Alpha  occ. eigenvalues --   -0.07342  -0.06492  -0.05277  -0.04914
 Alpha virt. eigenvalues --    0.13766   0.14509   0.17694   0.17866   0.19423
 Alpha virt. eigenvalues --    0.20125   0.21018   0.22423   0.23571   0.24396
 Alpha virt. eigenvalues --    0.25395   0.25862   0.26787   0.28785   0.29364

 Mulliken charges:
               1
     1  C   -0.502474
     2  H    0.144414
     3  H    0.142165
     4  H    0.098041
     5  C    0.064482
     6  C    0.471985
     7  N   -0.585604
     8  C    0.658180
     9  O   -0.610652
    10  O   -0.603883
    11  C    0.019529
    12  H    0.103162
    13  N   -0.480912
    14  C    0.265868
    15  O   -0.501562
    16  H    0.172970
    17  C   -0.357308
    18  H    0.158532
    19  H    0.157749
    20  C    0.176929
    21  F   -0.337237
    22  H    0.120991
    23  C    0.122092
    24  H    0.109601
    25  C   -0.041313
    26  H    0.108344
    27  H    0.149426
    28  O   -0.605393
    29  H    0.381879
 Sum of Mulliken charges =  -1.00000

 Dipole moment (field-independent basis, Debye):
    X=            -14.3094    Y=              5.9302    Z=              3.1517  Tot=             15.8070
 Quadrupole moment (field-independent basis, Debye-Ang):
   XX=           -164.4619   YY=           -114.8803   ZZ=           -107.2535
   XY=              9.5805   XZ=              4.1426   YZ=             -6.9295

 Normal termination of Gaussian 16 at Sun Jul 11 17:07:52 2021.
 Gaussian 16:  ES64L-G16RevB.01 20-Dec-2017

 --------------------------------------------------------
 #p mp2/aug-cc-pVDZ scf=tight maxdisk=180GB geom=allcheck
 --------------------------------------------------------

 Structure from the checkpoint file:  "SET_328_BBB277_conf1.geo_210_285.chk"
 -----------------------------------------
 SET_328_BBB277_conf1.geo_210_285 geometry
 -----------------------------------------
 Charge = -1 Multiplicity = 1

                         Standard orientation:
 ---------------------------------------------------------------------
 Center     Atomic      Atomic             Coordinates (Angstroms)
 Number     Number       Type             X           Y           Z
 ---------------------------------------------------------------------
      1          6           0        2.944345    2.581148    0.023204
      2          1           0        3.408514    2.861349   -0.928919
      3          1           0        3.698583    2.753288    0.799282
      4          1           0        2.105039    3.257849    0.205745
      5          6           0        2.489931    1.151711    0.009096
      6          6           0        3.466480    0.075088   -0.223356
      7          7           0        3.035093   -1.224403   -0.262389
      8          6           0        1.740806   -1.559730   -0.082049
      9          8           0        1.325751   -2.736057   -0.123212
     10          8           0        4.678369    0.352136   -0.389003
     11          6           0        1.202665    0.792628    0.197671
     12          1           0        0.417008    1.520722    0.363180
     13          7           0        0.798854   -0.523184    0.182922
     14          6           0       -0.603319   -0.850212    0.334447
     15          8           0       -1.365159   -0.255510   -0.741340
     16          1           0       -0.646509   -1.934295    0.246212
     17          6           0       -1.253112   -0.352889    1.629958
     18          1           0       -0.824207    0.606669    1.933483
     19          1           0       -1.135688   -1.064040    2.447987
     20          6           0       -2.696219   -0.123731    1.208220
     21          9           0       -3.334213    0.841859    1.989914
     22          1           0       -3.295839   -1.036672    1.269586
     23          6           0       -2.558218    0.363322   -0.240989
     24          1           0       -2.426263    1.455418   -0.219921
     25          6           0       -3.747003    0.013094   -1.123210
     26          1           0       -4.661267    0.385456   -0.636067
     27          1           0       -3.825046   -1.075423   -1.202967
     28          8           0       -3.626253    0.503110   -2.449373
     29          1           0       -3.663837    1.474063   -2.405086
 ---------------------------------------------------------------------

 SCF Done:  E(RHF) =  -893.618647098     A.U. after   15 cycles
