 Gaussian 16, Revision B.01,

 -----------------------------------------------------------
 #p b3lyp/6-31G(d) opt freq scrf=(iefpcm,read,solvent=water)
 -----------------------------------------------------------

 -----------------------------------------
 SET_328_BBB285_conf1.geo_300_075 geometry
 -----------------------------------------
 Symbolic Z-matrix:
 Charge = -1 Multiplicity = 1

 SCF Done:  E(RB3LYP) =  -906.608515890     A.U. after   14 cycles
 SCF Done:  E(RB3LYP) =  -906.644393954     A.U. after   11 cycles
 SCF Done:  E(RB3LYP) =  -906.659288542     A.U. after   12 cycles
 SCF Done:  E(RB3LYP) =  -906.661521464     A.U. after   11 cycles
 SCF Done:  E(RB3LYP) =  -906.662954537     A.U. after   11 cycles
 SCF Done:  E(RB3LYP) =  -906.664533395     A.U. after   11 cycles
 SCF Done:  E(RB3LYP) =  -906.665936607     A.U. after   11 cycles
 SCF Done:  E(RB3LYP) =  -906.664577520     A.U. after   13 cycles
 SCF Done:  E(RB3LYP) =  -906.666910376     A.U. after   11 cycles
 SCF Done:  E(RB3LYP) =  -906.666617430     A.U. after   11 cycles
 SCF Done:  E(RB3LYP) =  -906.667135348     A.U. after   10 cycles
 SCF Done:  E(RB3LYP) =  -906.667138203     A.U. after   10 cycles
 SCF Done:  E(RB3LYP) =  -906.667142010     A.U. after    9 cycles
 SCF Done:  E(RB3LYP) =  -906.667143490     A.U. after    9 cycles
 SCF Done:  E(RB3LYP) =  -906.667144225     A.U. after    8 cycles
 SCF Done:  E(RB3LYP) =  -906.667145124     A.U. after    8 cycles
 Optimization completed.
    -- Stationary point found.
 Normal termination of Gaussian 16 at Sun Jul 11 16:23:29 2021.

 --------------------------------------------------------------------
 #P Geom=AllCheck Guess=TCheck SCRF=Check GenChk RB3LYP/6-31G(d) Freq
 --------------------------------------------------------------------

 Structure from the checkpoint file:  "SET_328_BBB285_conf1.geo_300_075.chk"
 -----------------------------------------
 SET_328_BBB285_conf1.geo_300_075 geometry
 -----------------------------------------
 Charge = -1 Multiplicity = 1

 SCF Done:  E(RB3LYP) =  -906.667145124     A.U. after    1 cycles

  Exact polarizability: 190.886   9.078 129.151   8.851 -23.363 160.082
 Approx polarizability: 206.891  10.549 141.854  12.582 -29.171 191.770

                      1                      2                      3
                      A                      A                      A
 Frequencies --     22.0710                40.3451                48.8491
 Red. masses --      6.0361                 6.4252                 7.1415
 Frc consts  --      0.0017                 0.0062                 0.0100
 IR Inten    --     16.6284                 9.9678                10.1542

                      4                      5                      6
                      A                      A                      A
 Frequencies --     80.4611                89.9959               113.6053
 Red. masses --      6.4275                 6.6285                 3.5548
 Frc consts  --      0.0245                 0.0316                 0.0270
 IR Inten    --      6.0684                 1.8021                 3.2238

                      7                      8                      9
                      A                      A                      A
 Frequencies --    122.0106               170.8589               198.1452
 Red. masses --      8.0810                 3.7855                 7.5365
 Frc consts  --      0.0709                 0.0651                 0.1743
 IR Inten    --      4.8967                 9.2308                13.7656

                     10                     11                     12
                      A                      A                      A
 Frequencies --    225.6445               260.7944               271.5505
 Red. masses --      6.6021                 1.5325                 3.4774
 Frc consts  --      0.1981                 0.0614                 0.1511
 IR Inten    --     10.6391                45.0044                48.3105

                     13                     14                     15
                      A                      A                      A
 Frequencies --    286.6101               293.9040               316.7875
 Red. masses --      3.4047                 2.8960                 1.4450
 Frc consts  --      0.1648                 0.1474                 0.0854
 IR Inten    --    137.0620                 0.7477               142.6431

                     16                     17                     18
                      A                      A                      A
 Frequencies --    380.0312               390.5825               414.9566
 Red. masses --      7.7749                 5.4953                 6.6000
 Frc consts  --      0.6616                 0.4939                 0.6696
 IR Inten    --     16.5272                 7.4411                16.3619

                     19                     20                     21
                      A                      A                      A
 Frequencies --    441.3070               463.5006               514.6133
 Red. masses --      1.7698                 1.9848                 2.9513
 Frc consts  --      0.2031                 0.2512                 0.4605
 IR Inten    --    156.0523               126.0445                 8.2014

                     22                     23                     24
                      A                      A                      A
 Frequencies --    536.6559               625.0223               631.5848
 Red. masses --      5.2333                 3.4234                 4.7883
 Frc consts  --      0.8880                 0.7879                 1.1254
 IR Inten    --     16.8382                52.7282                11.8455

                     25                     26                     27
                      A                      A                      A
 Frequencies --    681.3886               717.3078               727.1245
 Red. masses --      8.6353                 2.3007                 2.3567
 Frc consts  --      2.3622                 0.6975                 0.7341
 IR Inten    --      1.1788                89.8131                12.4132

                     28                     29                     30
                      A                      A                      A
 Frequencies --    753.3359               782.5931               786.7643
 Red. masses --      7.0582                 4.8483                 5.7301
 Frc consts  --      2.3601                 1.7495                 2.0898
 IR Inten    --     31.8992                 8.3081               140.7897

                     31                     32                     33
                      A                      A                      A
 Frequencies --    847.6275               875.7991               888.1365
 Red. masses --      3.4902                 4.9810                 1.4284
 Frc consts  --      1.4774                 2.2510                 0.6638
 IR Inten    --     73.0685                52.8725                15.4022

                     34                     35                     36
                      A                      A                      A
 Frequencies --    912.5231               938.0335              1015.1591
 Red. masses --      3.1724                 2.0573                 7.4719
 Frc consts  --      1.5564                 1.0666                 4.5368
 IR Inten    --     58.8422                11.7493               128.0465

                     37                     38                     39
                      A                      A                      A
 Frequencies --   1032.0086              1035.2031              1048.8649
 Red. masses --      3.3187                 3.3659                 2.9305
 Frc consts  --      2.0825                 2.1252                 1.8994
 IR Inten    --     93.4705                22.4660               147.9638

                     40                     41                     42
                      A                      A                      A
 Frequencies --   1069.0017              1084.6775              1117.1825
 Red. masses --      3.2727                 5.2976                 2.4618
 Frc consts  --      2.2035                 3.6722                 1.8103
 IR Inten    --     36.4065               274.8175                12.9344

                     43                     44                     45
                      A                      A                      A
 Frequencies --   1126.0999              1160.7051              1164.4116
 Red. masses --      3.5470                 1.8392                 3.9679
 Frc consts  --      2.6501                 1.4599                 3.1697
 IR Inten    --    120.7961                 2.9355               121.1865

                     46                     47                     48
                      A                      A                      A
 Frequencies --   1202.0730              1219.3536              1233.4504
 Red. masses --      1.5715                 1.3218                 1.3299
 Frc consts  --      1.3379                 1.1579                 1.1921
 IR Inten    --    149.0769                51.9625                74.3825

                     49                     50                     51
                      A                      A                      A
 Frequencies --   1244.0805              1285.7096              1311.1243
 Red. masses --      1.4384                 1.8099                 1.2886
 Frc consts  --      1.3117                 1.7628                 1.3052
 IR Inten    --      7.4926                93.0769                17.1067

                     52                     53                     54
                      A                      A                      A
 Frequencies --   1321.2581              1337.1691              1348.0408
 Red. masses --      7.9505                 1.3435                 1.4018
 Frc consts  --      8.1775                 1.4153                 1.5009
 IR Inten    --     75.4962                49.4052                16.9318

                     55                     56                     57
                      A                      A                      A
 Frequencies --   1364.9258              1380.8553              1387.1906
 Red. masses --      4.2706                 1.3134                 1.2875
 Frc consts  --      4.6876                 1.4755                 1.4597
 IR Inten    --    360.3358                27.1592                21.6554

                     58                     59                     60
                      A                      A                      A
 Frequencies --   1407.8149              1419.6999              1424.9779
 Red. masses --      1.4443                 2.1561                 1.8358
 Frc consts  --      1.6865                 2.5604                 2.1963
 IR Inten    --     50.8318                33.0942                77.7488

                     61                     62                     63
                      A                      A                      A
 Frequencies --   1434.8282              1450.5988              1451.7815
 Red. masses --      1.7646                 1.6071                 2.9941
 Frc consts  --      2.1404                 1.9924                 3.7180
 IR Inten    --     92.2344                22.1677                97.8158

                     64                     65                     66
                      A                      A                      A
 Frequencies --   1469.1976              1516.9864              1540.1312
 Red. masses --      1.8287                 1.0915                 5.6594
 Frc consts  --      2.3257                 1.4799                 7.9092
 IR Inten    --      6.5896                 1.6215                30.8280

                     67                     68                     69
                      A                      A                      A
 Frequencies --   1653.7938              3028.8151              3034.9415
 Red. masses --      8.1189                 1.0813                 1.0730
 Frc consts  --     13.0830                 5.8443                 5.8233
 IR Inten    --    644.1778                54.5776                64.5622

                     70                     71                     72
                      A                      A                      A
 Frequencies --   3058.4611              3127.3000              3143.5426
 Red. masses --      1.0858                 1.0863                 1.0862
 Frc consts  --      5.9845                 6.2595                 6.3240
 IR Inten    --    112.5039                13.3525                34.3642

                     73                     74                     75
                      A                      A                      A
 Frequencies --   3150.8317              3310.6117              3452.2879
 Red. masses --      1.0937                 1.0974                 1.0732
 Frc consts  --      6.3971                 7.0865                 7.5358
 IR Inten    --     39.3296                 2.1481                 2.6268

                     76                     77                     78
                      A                      A                      A
 Frequencies --   3617.3354              3717.1785              3721.4993
 Red. masses --      1.0650                 1.0663                 1.0668
 Frc consts  --      8.2109                 8.6805                 8.7046
 IR Inten    --    158.7419                73.6811               139.4544

 - Thermochemistry -
 -------------------
 Temperature   298.150 Kelvin.  Pressure   1.00000 Atm.
 Atom     1 has atomic number  7 and mass  14.00307

 Molecular mass:   243.07294 amu.
 Principal axes and moments of inertia in atomic units:
                           1         2         3
     Eigenvalues --  2252.836707025.884307878.70596
           X            0.99996  -0.00576   0.00713
           Y            0.00578   0.99998  -0.00235
           Z           -0.00712   0.00240   0.99997
 This molecule is an asymmetric top.
 Rotational symmetry number  1.
 Warning -- assumption of classical behavior for rotation
           may cause significant error
 Rotational temperatures (Kelvin)      0.03845     0.01233     0.01099
 Rotational constants (GHZ):           0.80110     0.25687     0.22907
 Zero-point vibrational energy     559084.8 (Joules/Mol)
                                  133.62448 (Kcal/Mol)
 Warning -- explicit consideration of  22 degrees of freedom as
           vibrations may cause significant error
 Vibrational temperatures:     31.76    58.05    70.28   115.77   129.48
          (Kelvin)            163.45   175.55   245.83   285.09   324.65
                              375.22   390.70   412.37   422.86   455.79
                              546.78   561.96   597.03   634.94   666.87
                              740.41   772.13   899.27   908.71   980.37
                             1032.05  1046.17  1083.88  1125.98  1131.98
                             1219.55  1260.08  1277.83  1312.92  1349.62
                             1460.59  1484.83  1489.43  1509.08  1538.06
                             1560.61  1607.38  1620.21  1670.00  1675.33
                             1729.51  1754.38  1774.66  1789.95  1849.85
                             1886.42  1901.00  1923.89  1939.53  1963.82
                             1986.74  1995.86  2025.53  2042.63  2050.23
                             2064.40  2087.09  2088.79  2113.85  2182.61
                             2215.91  2379.44  4357.79  4366.60  4400.44
                             4499.49  4522.86  4533.34  4763.23  4967.07
                             5204.54  5348.19  5354.41

 Zero-point correction=                           0.212944 (Hartree/Particle)
 Thermal correction to Energy=                    0.228677
 Thermal correction to Enthalpy=                  0.229621
 Thermal correction to Gibbs Free Energy=         0.167905
 Sum of electronic and zero-point Energies=           -906.454201
 Sum of electronic and thermal Energies=              -906.438468
 Sum of electronic and thermal Enthalpies=            -906.437524
 Sum of electronic and thermal Free Energies=         -906.499240

                     E (Thermal)             CV                S
                      KCal/Mol        Cal/Mol-Kelvin    Cal/Mol-Kelvin
 Total                  143.497             57.862            129.894
 Electronic               0.000              0.000              0.000
 Translational            0.889              2.981             42.366
 Rotational               0.889              2.981             33.189
 Vibrational            141.720             51.900             54.340
 Vibration     1          0.593              1.985              6.439
 Vibration     2          0.594              1.981              5.242
 Vibration     3          0.595              1.978              4.863
 Vibration     4          0.600              1.962              3.880
 Vibration     5          0.602              1.956              3.660
 Vibration     6          0.607              1.938              3.206
 Vibration     7          0.610              1.931              3.068
 Vibration     8          0.626              1.878              2.426
 Vibration     9          0.637              1.842              2.150
 Vibration    10          0.650              1.802              1.913
 Vibration    11          0.669              1.744              1.656
 Vibration    12          0.675              1.726              1.586
 Vibration    13          0.684              1.699              1.494
 Vibration    14          0.689              1.685              1.451
 Vibration    15          0.704              1.642              1.327
 Vibration    16          0.750              1.513              1.039
 Vibration    17          0.758              1.490              0.998
 Vibration    18          0.778              1.438              0.909
 Vibration    19          0.801              1.380              0.823
 Vibration    20          0.821              1.331              0.756
 Vibration    21          0.870              1.218              0.623
 Vibration    22          0.892              1.169              0.573

                           ! Non-Optimized Parameters !
 Normal termination of Gaussian 16 at Sun Jul 11 16:31:27 2021.

 ----------------------------------------------------------------------
 #p b3lyp/6-31G(d) scrf=(iefpcm,read,solvent=water) geom=allcheck guess
 =read
 ----------------------------------------------------------------------

 Structure from the checkpoint file:  "SET_328_BBB285_conf1.geo_300_075.chk"
 -----------------------------------------
 SET_328_BBB285_conf1.geo_300_075 geometry
 -----------------------------------------
 Charge = -1 Multiplicity = 1

 SCF Done:  E(RB3LYP) =  -906.667145124     A.U. after    1 cycles
 Normal termination of Gaussian 16 at Sun Jul 11 16:31:34 2021.

 -----------------------------
 #p B3LYP/6-31G* geom=allcheck
 -----------------------------

 Structure from the checkpoint file:  "SET_328_BBB285_conf1.geo_300_075.chk"
 -----------------------------------------
 SET_328_BBB285_conf1.geo_300_075 geometry
 -----------------------------------------
 Charge = -1 Multiplicity = 1

 SCF Done:  E(RB3LYP) =  -906.532345138     A.U. after   18 cycles
 Normal termination of Gaussian 16 at Sun Jul 11 16:32:14 2021.
 Gaussian 16:  ES64L-G16RevB.01 20-Dec-2017

 --------------------------------------------------------
 #p mp2/aug-cc-pVDZ scf=tight maxdisk=180GB geom=allcheck
 --------------------------------------------------------

 Structure from the checkpoint file:  "SET_328_BBB285_conf1.geo_300_075.chk"
 -----------------------------------------
 SET_328_BBB285_conf1.geo_300_075 geometry
 -----------------------------------------
 Charge = -1 Multiplicity = 1

                         Standard orientation:
 ---------------------------------------------------------------------
 Center     Atomic      Atomic             Coordinates (Angstroms)
 Number     Number       Type             X           Y           Z
 ---------------------------------------------------------------------
      1          7           0        3.694583    1.058271   -1.874218
      2          1           0        2.708140    0.951773   -2.120702
      3          6           0        3.874732    0.598774   -0.651119
      4          8           0        4.976175    0.572262   -0.019057
      5          6           0        2.699192    0.039140    0.123573
      6          6           0        2.712821   -0.516994    1.419835
      7          7           0        1.477717   -0.892371    1.753546
      8          1           0        3.544121   -0.657058    2.092286
      9          7           0        1.436306   -0.010751   -0.320967
     10          7           0        0.754727   -0.578693    0.673650
     11          6           0       -0.695181   -0.721203    0.654357
     12          1           0       -0.924847   -1.370065    1.500023
     13          8           0       -1.324145    0.532755    0.816925
     14          6           0       -2.107615    0.847661   -0.361343
     15          6           0       -3.291360    1.707640    0.047396
     16          8           0       -2.902250    2.945288    0.626551
     17          1           0       -2.469068    3.468671   -0.069744
     18          1           0       -3.867184    1.171800    0.803145
     19          1           0       -3.935690    1.856234   -0.830218
     20          1           0       -1.476297    1.398851   -1.072365
     21          6           0       -2.471980   -0.508606   -0.957311
     22          8           0       -3.569374   -1.071555   -0.260851
     23          1           0       -3.383686   -2.031073   -0.216856
     24          1           0       -2.681529   -0.437064   -2.031171
     25          6           0       -1.200303   -1.326237   -0.669327
     26          1           0       -0.453951   -1.162269   -1.448739
     27          8           0       -1.462725   -2.705332   -0.477837
     28          1           0       -1.466628   -3.133379   -1.351926
 ---------------------------------------------------------------------

 SCF Done:  E(RHF) =  -901.535741554     A.U. after   16 cycles
 E2 =    -0.2816446234D+01 EUMP2 =    -0.90435218778787D+03

 The electronic state is 1-A.
 Alpha  occ. eigenvalues --  -20.53229 -20.50624 -20.49801 -20.49201 -20.31222
 Alpha  occ. eigenvalues --  -15.56121 -15.50248 -15.49450 -15.33073 -11.25160
 Alpha  occ. eigenvalues --  -11.23040 -11.22781 -11.21939 -11.21157 -11.14919
 Alpha  occ. eigenvalues --  -11.14089 -11.13586  -1.34886  -1.32845  -1.30690
 Alpha  occ. eigenvalues --   -1.29231  -1.28369  -1.14497  -1.06952  -1.02453
 Alpha  occ. eigenvalues --   -0.98213  -0.95321  -0.92504  -0.83724  -0.76922
 Alpha  occ. eigenvalues --   -0.73839  -0.72150  -0.69220  -0.65894  -0.64072
 Alpha  occ. eigenvalues --   -0.63603  -0.61577  -0.59406  -0.58288  -0.55742
 Alpha  occ. eigenvalues --   -0.54700  -0.54444  -0.52011  -0.50427  -0.49522
 Alpha  occ. eigenvalues --   -0.48547  -0.47735  -0.47238  -0.47097  -0.43698
 Alpha  occ. eigenvalues --   -0.42205  -0.39437  -0.38916  -0.38072  -0.37627
 Alpha  occ. eigenvalues --   -0.36885  -0.35776  -0.35079  -0.34875  -0.27469
 Alpha  occ. eigenvalues --   -0.24077  -0.23065  -0.21280  -0.15410
 Alpha virt. eigenvalues --    0.08626   0.09818   0.10835   0.11702   0.12751
 Alpha virt. eigenvalues --    0.12975   0.13193   0.14402   0.14988   0.16074
 Alpha virt. eigenvalues --    0.17488   0.18686   0.18867   0.19638   0.20323

 Mulliken charges:
               1
     1  N   -0.675975
     2  H   -0.029112
     3  C    0.853133
     4  O   -1.016541
     5  C    0.848997
     6  C    0.555856
     7  N   -0.518902
     8  H   -0.315734
     9  N   -0.932284
    10  N   -0.420449
    11  C    2.000804
    12  H   -0.322127
    13  O   -1.143681
    14  C    0.038218
    15  C    1.313679
    16  O   -0.725542
    17  H    0.154385
    18  H   -0.073258
    19  H   -0.065286
    20  H   -0.312561
    21  C    1.144670
    22  O   -0.928951
    23  H    0.193026
    24  H   -0.153371
    25  C    0.522750
    26  H   -0.285340
    27  O   -0.868606
    28  H    0.162202
 Sum of Mulliken charges =  -1.00000

 Dipole moment (field-independent basis, Debye):
    X=            -18.6399    Y=             -5.3024    Z=             -1.2403  Tot=             19.4190
 Quadrupole moment (field-independent basis, Debye-Ang):
   XX=           -206.7693   YY=           -105.1713   ZZ=           -112.4544
   XY=            -12.6271   XZ=             28.3382   YZ=              5.2425

 Normal termination of Gaussian 16 at Sun Jul 11 16:59:51 2021.
