 Gaussian 16, Revision B.01,

 -----------------------------------------------------------
 #p b3lyp/6-31G(d) opt freq scrf=(iefpcm,read,solvent=water)
 -----------------------------------------------------------

 ----------------------------------------
 SET_328_BBB87_conf1.geo_180_270 geometry
 ----------------------------------------
 Symbolic Z-matrix:
 Charge =  1 Multiplicity = 1

 SCF Done:  E(RB3LYP) =  -703.476825602     A.U. after   13 cycles
 SCF Done:  E(RB3LYP) =  -703.503284604     A.U. after   11 cycles
 SCF Done:  E(RB3LYP) =  -703.507959465     A.U. after   11 cycles
 SCF Done:  E(RB3LYP) =  -703.508292422     A.U. after   11 cycles
 SCF Done:  E(RB3LYP) =  -703.508871335     A.U. after   10 cycles
 SCF Done:  E(RB3LYP) =  -703.508935416     A.U. after    9 cycles
 SCF Done:  E(RB3LYP) =  -703.508958149     A.U. after   10 cycles
 SCF Done:  E(RB3LYP) =  -703.508970248     A.U. after    9 cycles
 SCF Done:  E(RB3LYP) =  -703.508989450     A.U. after    9 cycles
 SCF Done:  E(RB3LYP) =  -703.509010715     A.U. after    9 cycles
 SCF Done:  E(RB3LYP) =  -703.509029523     A.U. after   10 cycles
 SCF Done:  E(RB3LYP) =  -703.509034575     A.U. after    9 cycles
 SCF Done:  E(RB3LYP) =  -703.509038060     A.U. after    9 cycles
 SCF Done:  E(RB3LYP) =  -703.509041183     A.U. after    8 cycles
 SCF Done:  E(RB3LYP) =  -703.509036913     A.U. after    8 cycles
 SCF Done:  E(RB3LYP) =  -703.509024884     A.U. after    8 cycles
 Optimization completed.
    -- Stationary point found.
 Normal termination of Gaussian 16 at Sun Jul 11 16:25:03 2021.

 --------------------------------------------------------------------
 #P Geom=AllCheck Guess=TCheck SCRF=Check GenChk RB3LYP/6-31G(d) Freq
 --------------------------------------------------------------------

 Structure from the checkpoint file:  "SET_328_BBB87_conf1.geo_180_270.chk"
 ----------------------------------------
 SET_328_BBB87_conf1.geo_180_270 geometry
 ----------------------------------------
 Charge =  1 Multiplicity = 1

 SCF Done:  E(RB3LYP) =  -703.509024884     A.U. after    1 cycles

  Exact polarizability: 122.673  -0.299 113.260  11.887   1.246  64.583
 Approx polarizability: 135.848   2.699 146.635  16.121   2.893  74.546

                      1                      2                      3
                      A                      A                      A
 Frequencies --     53.8584                88.5482               118.4288
 Red. masses --      3.7962                 1.9282                 4.0549
 Frc consts  --      0.0065                 0.0089                 0.0335
 IR Inten    --     16.6265                 2.8834                15.6612

                      4                      5                      6
                      A                      A                      A
 Frequencies --    297.4575               310.5722               329.7949
 Red. masses --      3.2995                 4.7986                 1.0644
 Frc consts  --      0.1720                 0.2727                 0.0682
 IR Inten    --      7.7896                 7.2197                 0.1594

                      7                      8                      9
                      A                      A                      A
 Frequencies --    346.2699               525.3755               605.3559
 Red. masses --      3.1109                 4.4757                 6.6802
 Frc consts  --      0.2198                 0.7279                 1.4423
 IR Inten    --     17.0378                 6.8768                 7.3958

                     10                     11                     12
                      A                      A                      A
 Frequencies --    629.9624               700.0471               749.1844
 Red. masses --      5.2096                 3.8324                 1.3669
 Frc consts  --      1.2181                 1.1066                 0.4520
 IR Inten    --     13.3570                 8.5040                47.6394

                     13                     14                     15
                      A                      A                      A
 Frequencies --    773.2359               791.6625               886.3815
 Red. masses --      5.7754                 1.1912                 4.6522
 Frc consts  --      2.0345                 0.4398                 2.1535
 IR Inten    --     21.4621                11.9406                 4.3616

                     16                     17                     18
                      A                      A                      A
 Frequencies --    905.1039               930.4396               941.3065
 Red. masses --      1.3157                 1.3455                 2.0781
 Frc consts  --      0.6350                 0.6863                 1.0849
 IR Inten    --      1.9053                44.1900                27.4111

                     19                     20                     21
                      A                      A                      A
 Frequencies --   1023.6252              1056.7155              1098.5279
 Red. masses --      3.2578                 1.8246                 1.3299
 Frc consts  --      2.0112                 1.2004                 0.9456
 IR Inten    --     13.2606                46.5590                 1.2995

                     22                     23                     24
                      A                      A                      A
 Frequencies --   1156.9994              1190.2656              1214.9533
 Red. masses --      1.6844                 2.1446                 2.1531
 Frc consts  --      1.3285                 1.7901                 1.8725
 IR Inten    --     44.5677               124.8980                12.4660

                     25                     26                     27
                      A                      A                      A
 Frequencies --   1309.8268              1349.3730              1361.3593
 Red. masses --      1.2698                 1.6292                 1.6693
 Frc consts  --      1.2835                 1.7478                 1.8228
 IR Inten    --      6.9949                 4.8534                 0.9803

                     28                     29                     30
                      A                      A                      A
 Frequencies --   1369.6885              1434.6786              1492.1920
 Red. masses --      1.1473                 1.3904                 5.6404
 Frc consts  --      1.2681                 1.6861                 7.3997
 IR Inten    --     11.4186                25.0549                17.3991

                     31                     32                     33
                      A                      A                      A
 Frequencies --   1496.4184              1522.9525              1531.2032
 Red. masses --      1.1143                 1.1431                 1.1031
 Frc consts  --      1.4702                 1.5621                 1.5238
 IR Inten    --      2.8228               152.1355                48.4106

                     34                     35                     36
                      A                      A                      A
 Frequencies --   1567.2127              1636.6973              1659.0693
 Red. masses --      6.0771                 1.0436                 1.0389
 Frc consts  --      8.7943                 1.6471                 1.6848
 IR Inten    --     63.9282                74.6550                92.0216

                     37                     38                     39
                      A                      A                      A
 Frequencies --   3086.0246              3133.7971              3148.7270
 Red. masses --      1.0594                 1.1059                 1.0589
 Frc consts  --      5.9442                 6.3991                 6.1855
 IR Inten    --     15.8335                 7.6726                11.2804

                     40                     41                     42
                      A                      A                      A
 Frequencies --   3209.6181              3249.0561              3292.7391
 Red. masses --      1.1111                 1.0916                 1.0986
 Frc consts  --      6.7439                 6.7894                 7.0180
 IR Inten    --     10.6583                12.8949                 3.0172

                     43                     44                     45
                      A                      A                      A
 Frequencies --   3370.6920              3430.5429              3461.8636
 Red. masses --      1.0349                 1.0943                 1.0922
 Frc consts  --      6.9275                 7.5877                 7.7121
 IR Inten    --    156.8362               240.2235               231.3774

 - Thermochemistry -
 -------------------
 Temperature   298.150 Kelvin.  Pressure   1.00000 Atm.
 Atom     1 has atomic number  7 and mass  14.00307

 Molecular mass:   129.04865 amu.
 Principal axes and moments of inertia in atomic units:
                           1         2         3
     Eigenvalues --   422.150251941.539762213.27950
           X            0.99996  -0.00871   0.00191
           Y            0.00873   0.99992  -0.00863
           Z           -0.00183   0.00865   0.99996
 This molecule is an asymmetric top.
 Rotational symmetry number  1.
 Rotational temperatures (Kelvin)      0.20517     0.04461     0.03913
 Rotational constants (GHZ):           4.27512     0.92954     0.81541
 Zero-point vibrational energy     381834.9 (Joules/Mol)
                                   91.26072 (Kcal/Mol)
 Warning -- explicit consideration of   9 degrees of freedom as
           vibrations may cause significant error
 Vibrational temperatures:     77.49   127.40   170.39   427.98   446.84
          (Kelvin)            474.50   498.21   755.90   870.97   906.38
                             1007.21  1077.91  1112.51  1139.03  1275.31
                             1302.24  1338.70  1354.33  1472.77  1520.38
                             1580.54  1664.66  1712.53  1748.05  1884.55
                             1941.45  1958.69  1970.68  2064.18  2146.93
                             2153.01  2191.19  2203.06  2254.87  2354.84
                             2387.03  4440.10  4508.84  4530.32  4617.92
                             4674.67  4737.52  4849.67  4935.79  4980.85

 Zero-point correction=                           0.145433 (Hartree/Particle)
 Thermal correction to Energy=                    0.153428
 Thermal correction to Enthalpy=                  0.154372
 Thermal correction to Gibbs Free Energy=         0.111762
 Sum of electronic and zero-point Energies=           -703.363592
 Sum of electronic and thermal Energies=              -703.355597
 Sum of electronic and thermal Enthalpies=            -703.354653
 Sum of electronic and thermal Free Energies=         -703.397263

                     E (Thermal)             CV                S
                      KCal/Mol        Cal/Mol-Kelvin    Cal/Mol-Kelvin
 Total                   96.277             29.020             89.680
 Electronic               0.000              0.000              0.000
 Translational            0.889              2.981             40.478
 Rotational               0.889              2.981             28.985
 Vibrational             94.500             23.059             20.217
 Vibration     1          0.596              1.976              4.670
 Vibration     2          0.601              1.957              3.692
 Vibration     3          0.609              1.934              3.126
 Vibration     4          0.691              1.678              1.431
 Vibration     5          0.699              1.654              1.359
 Vibration     6          0.713              1.616              1.261
 Vibration     7          0.724              1.583              1.183
 Vibration     8          0.880              1.194              0.598
 Vibration     9          0.964              1.020              0.441

                           ! Non-Optimized Parameters !
 Normal termination of Gaussian 16 at Sun Jul 11 16:26:32 2021.

 ----------------------------------------------------------------------
 #p b3lyp/6-31G(d) scrf=(iefpcm,read,solvent=water) geom=allcheck guess
 =read
 ----------------------------------------------------------------------

 Structure from the checkpoint file:  "SET_328_BBB87_conf1.geo_180_270.chk"
 ----------------------------------------
 SET_328_BBB87_conf1.geo_180_270 geometry
 ----------------------------------------
 Charge =  1 Multiplicity = 1

 SCF Done:  E(RB3LYP) =  -703.509024884     A.U. after    1 cycles
 Normal termination of Gaussian 16 at Sun Jul 11 16:26:35 2021.

 -----------------------------
 #p B3LYP/6-31G* geom=allcheck
 -----------------------------

 Structure from the checkpoint file:  "SET_328_BBB87_conf1.geo_180_270.chk"
 ----------------------------------------
 SET_328_BBB87_conf1.geo_180_270 geometry
 ----------------------------------------
 Charge =  1 Multiplicity = 1

 SCF Done:  E(RB3LYP) =  -703.386825703     A.U. after   15 cycles
 Normal termination of Gaussian 16 at Sun Jul 11 16:26:45 2021.
 Gaussian 16:  ES64L-G16RevB.01 20-Dec-2017

 --------------------------------------------------------
 #p mp2/aug-cc-pVDZ scf=tight maxdisk=180GB geom=allcheck
 --------------------------------------------------------

 Structure from the checkpoint file:  "SET_328_BBB87_conf1.geo_180_270.chk"
 ----------------------------------------
 SET_328_BBB87_conf1.geo_180_270 geometry
 ----------------------------------------
 Charge =  1 Multiplicity = 1

                         Standard orientation:
 ---------------------------------------------------------------------
 Center     Atomic      Atomic             Coordinates (Angstroms)
 Number     Number       Type             X           Y           Z
 ---------------------------------------------------------------------
      1          7           0        3.537468   -0.001057   -0.162693
      2          1           0        3.817009    0.772618    0.463140
      3          1           0        4.142836    0.044619   -0.999169
      4          6           0        2.089693    0.092235   -0.541573
      5          1           0        1.897528   -0.708644   -1.253564
      6          1           0        1.953147    1.051875   -1.037009
      7          6           0        1.200373   -0.024489    0.697901
      8          1           0        1.472610    0.750677    1.419951
      9          1           0        1.351309   -0.996416    1.175596
     10          6           0       -0.246326    0.162463    0.341788
     11          7           0       -0.818161    1.329303    0.211753
     12          6           0       -2.140015    1.198581   -0.154438
     13          1           0       -2.741508    2.088688   -0.290815
     14          6           0       -2.593847   -0.078451   -0.311563
     15          1           0       -3.582858   -0.417605   -0.583659
     16         16           0       -1.309528   -1.193781    0.015423
     17          1           0        3.747946   -0.885065    0.322656
 ---------------------------------------------------------------------

 SCF Done:  E(RHF) =  -700.812338081     A.U. after   14 cycles
 E2 =    -0.1190407149D+01 EUMP2 =    -0.70200274523020D+03

 The electronic state is 1-A.
 Alpha  occ. eigenvalues --  -92.11429 -15.90777 -15.70278 -11.48706 -11.44675
 Alpha  occ. eigenvalues --  -11.42570 -11.38611 -11.38464  -9.11630  -6.79777
 Alpha  occ. eigenvalues --   -6.79692  -6.79516  -1.51630  -1.40430  -1.24265
 Alpha  occ. eigenvalues --   -1.18107  -1.12659  -1.05419  -0.97448  -0.96441
 Alpha  occ. eigenvalues --   -0.91454  -0.86972  -0.84708  -0.80580  -0.79622
 Alpha  occ. eigenvalues --   -0.73607  -0.71989  -0.69510  -0.66582  -0.66059
 Alpha  occ. eigenvalues --   -0.61637  -0.54955  -0.50432  -0.45186
 Alpha virt. eigenvalues --   -0.11733  -0.07958  -0.07873  -0.06298  -0.03941
 Alpha virt. eigenvalues --   -0.03615  -0.03523  -0.02924  -0.02242  -0.02115
 Alpha virt. eigenvalues --   -0.01498  -0.01069   0.00770   0.01338   0.01448

 Mulliken charges:
               1
     1  N   -0.546073
     2  H    0.248615
     3  H    0.186755
     4  C    0.948185
     5  H   -0.124790
     6  H   -0.092753
     7  C    0.301660
     8  H   -0.039256
     9  H   -0.090903
    10  C   -0.099877
    11  N   -0.754049
    12  C    0.784794
    13  H   -0.231194
    14  C    0.233572
    15  H   -0.343712
    16  S    0.377025
    17  H    0.242000
 Sum of Mulliken charges =   1.00000

 Dipole moment (field-independent basis, Debye):
    X=             13.0645    Y=             -1.0151    Z=             -1.0390  Tot=             13.1450
 Quadrupole moment (field-independent basis, Debye-Ang):
   XX=             12.8501   YY=            -52.5780   ZZ=            -52.6053
   XY=             -0.7376   XZ=             -0.0582   YZ=             -0.7479

 Normal termination of Gaussian 16 at Sun Jul 11 16:28:05 2021.
