 Gaussian 16, Revision B.01,

 -----------------------------------------------------------
 #p b3lyp/6-31G(d) opt freq scrf=(iefpcm,read,solvent=water)
 -----------------------------------------------------------

 ----------------------------------------
 SET_328_BBB87_conf1.geo_180_090 geometry
 ----------------------------------------
 Symbolic Z-matrix:
 Charge =  1 Multiplicity = 1

 SCF Done:  E(RB3LYP) =  -703.467354984     A.U. after   13 cycles
 SCF Done:  E(RB3LYP) =  -703.500131091     A.U. after   11 cycles
 SCF Done:  E(RB3LYP) =  -703.507741015     A.U. after   11 cycles
 SCF Done:  E(RB3LYP) =  -703.508443458     A.U. after   11 cycles
 SCF Done:  E(RB3LYP) =  -703.508741868     A.U. after   10 cycles
 SCF Done:  E(RB3LYP) =  -703.508838943     A.U. after   10 cycles
 SCF Done:  E(RB3LYP) =  -703.508890507     A.U. after    9 cycles
 SCF Done:  E(RB3LYP) =  -703.508940165     A.U. after   10 cycles
 SCF Done:  E(RB3LYP) =  -703.508956508     A.U. after    9 cycles
 SCF Done:  E(RB3LYP) =  -703.508996049     A.U. after    9 cycles
 SCF Done:  E(RB3LYP) =  -703.509057868     A.U. after    8 cycles
 SCF Done:  E(RB3LYP) =  -703.509068721     A.U. after    9 cycles
 SCF Done:  E(RB3LYP) =  -703.509053900     A.U. after    9 cycles
 SCF Done:  E(RB3LYP) =  -703.509054819     A.U. after    7 cycles
 SCF Done:  E(RB3LYP) =  -703.509068672     A.U. after    9 cycles
 SCF Done:  E(RB3LYP) =  -703.509054352     A.U. after    9 cycles
 Optimization completed.
    -- Stationary point found.
 Normal termination of Gaussian 16 at Sun Jul 11 16:26:45 2021.

 --------------------------------------------------------------------
 #P Geom=AllCheck Guess=TCheck SCRF=Check GenChk RB3LYP/6-31G(d) Freq
 --------------------------------------------------------------------

 Structure from the checkpoint file:  "SET_328_BBB87_conf1.geo_180_090.chk"
 ----------------------------------------
 SET_328_BBB87_conf1.geo_180_090 geometry
 ----------------------------------------
 Charge =  1 Multiplicity = 1

 SCF Done:  E(RB3LYP) =  -703.509054352     A.U. after    1 cycles

  Exact polarizability: 122.811   0.290 113.336 -11.906   1.223  64.661
 Approx polarizability: 135.899  -2.682 146.744 -16.119   2.852  74.615

                      1                      2                      3
                      A                      A                      A
 Frequencies --     64.0307               111.2491               119.2686
 Red. masses --      4.0607                 1.9568                 4.0109
 Frc consts  --      0.0098                 0.0143                 0.0336
 IR Inten    --     14.6309                 4.7828                15.3703

                      4                      5                      6
                      A                      A                      A
 Frequencies --    299.9762               310.8693               345.0545
 Red. masses --      3.3168                 4.7469                 3.0408
 Frc consts  --      0.1759                 0.2703                 0.2133
 IR Inten    --      8.6509                 6.4412                16.5037

                      7                      8                      9
                      A                      A                      A
 Frequencies --    363.9257               525.2036               605.1479
 Red. masses --      1.0570                 4.4587                 6.7230
 Frc consts  --      0.0825                 0.7246                 1.4506
 IR Inten    --      0.1369                 6.9829                 7.2187

                     10                     11                     12
                      A                      A                      A
 Frequencies --    629.5350               698.9672               747.7137
 Red. masses --      5.1475                 3.7964                 1.3605
 Frc consts  --      1.2020                 1.0928                 0.4481
 IR Inten    --     13.7051                 9.0622                47.7555

                     13                     14                     15
                      A                      A                      A
 Frequencies --    774.9774               790.1207               887.7738
 Red. masses --      6.0993                 1.1925                 4.6121
 Frc consts  --      2.1583                 0.4386                 2.1417
 IR Inten    --     20.3376                11.7263                 4.7710

                     16                     17                     18
                      A                      A                      A
 Frequencies --    903.7311               935.0890               941.4561
 Red. masses --      1.3163                 1.5110                 1.8443
 Frc consts  --      0.6334                 0.7784                 0.9631
 IR Inten    --      1.8218                43.3365                27.8097

                     19                     20                     21
                      A                      A                      A
 Frequencies --   1020.3539              1056.7183              1098.1514
 Red. masses --      3.2938                 1.8196                 1.3349
 Frc consts  --      2.0205                 1.1971                 0.9484
 IR Inten    --     13.7589                45.8391                 1.3907

                     22                     23                     24
                      A                      A                      A
 Frequencies --   1157.3775              1189.1816              1213.8312
 Red. masses --      1.6286                 2.1521                 2.1400
 Frc consts  --      1.2853                 1.7931                 1.8577
 IR Inten    --     43.5156               125.4362                11.8883

                     25                     26                     27
                      A                      A                      A
 Frequencies --   1311.8567              1350.0403              1360.5066
 Red. masses --      1.2707                 1.6116                 1.4716
 Frc consts  --      1.2884                 1.7306                 1.6049
 IR Inten    --      7.5413                 5.2216                 1.8626

                     28                     29                     30
                      A                      A                      A
 Frequencies --   1366.1476              1427.7724              1492.6043
 Red. masses --      1.2521                 1.3943                 5.8631
 Frc consts  --      1.3768                 1.6747                 7.6960
 IR Inten    --     10.5447                23.6386                19.5568

                     31                     32                     33
                      A                      A                      A
 Frequencies --   1495.4122              1521.0747              1529.9909
 Red. masses --      1.1071                 1.0851                 1.1652
 Frc consts  --      1.4587                 1.4791                 1.6070
 IR Inten    --      1.9866                26.3686               175.8981

                     34                     35                     36
                      A                      A                      A
 Frequencies --   1566.7595              1641.7802              1661.4359
 Red. masses --      5.9999                 1.0439                 1.0386
 Frc consts  --      8.6775                 1.6578                 1.6891
 IR Inten    --     61.9998                76.4346                90.9333

                     37                     38                     39
                      A                      A                      A
 Frequencies --   3084.6193              3133.1991              3138.1202
 Red. masses --      1.0595                 1.1050                 1.0597
 Frc consts  --      5.9398                 6.3915                 6.1483
 IR Inten    --     15.0859                 6.9998                12.3266

                     40                     41                     42
                      A                      A                      A
 Frequencies --   3199.2951              3254.4380              3296.4420
 Red. masses --      1.1110                 1.0915                 1.0987
 Frc consts  --      6.7001                 6.8114                 7.0342
 IR Inten    --     11.4689                12.7139                 3.0147

                     43                     44                     45
                      A                      A                      A
 Frequencies --   3356.7236              3420.9730              3434.9095
 Red. masses --      1.0336                 1.0930                 1.0950
 Frc consts  --      6.8618                 7.5363                 7.6118
 IR Inten    --    144.1497               241.6342               242.7916

 - Thermochemistry -
 -------------------
 Temperature   298.150 Kelvin.  Pressure   1.00000 Atm.
 Atom     1 has atomic number  7 and mass  14.00307

 Molecular mass:   129.04865 amu.
 Principal axes and moments of inertia in atomic units:
                           1         2         3
     Eigenvalues --   422.379971945.901362217.44589
           X            0.99996   0.00869  -0.00191
           Y           -0.00870   0.99993  -0.00852
           Z            0.00183   0.00853   0.99996
 This molecule is an asymmetric top.
 Rotational symmetry number  1.
 Rotational temperatures (Kelvin)      0.20506     0.04451     0.03906
 Rotational constants (GHZ):           4.27279     0.92746     0.81388
 Zero-point vibrational energy     381810.9 (Joules/Mol)
                                   91.25500 (Kcal/Mol)
 Warning -- explicit consideration of   9 degrees of freedom as
           vibrations may cause significant error
 Vibrational temperatures:     92.13   160.06   171.60   431.60   447.27
          (Kelvin)            496.46   523.61   755.65   870.67   905.76
                             1005.66  1075.79  1115.02  1136.81  1277.31
                             1300.27  1345.38  1354.55  1468.06  1520.38
                             1579.99  1665.21  1710.97  1746.43  1887.47
                             1942.41  1957.47  1965.58  2054.25  2147.52
                             2151.56  2188.49  2201.32  2254.22  2362.16
                             2390.44  4438.08  4507.97  4515.05  4603.07
                             4682.41  4742.84  4829.58  4922.02  4942.07

 Zero-point correction=                           0.145424 (Hartree/Particle)
 Thermal correction to Energy=                    0.153314
 Thermal correction to Enthalpy=                  0.154258
 Thermal correction to Gibbs Free Energy=         0.112103
 Sum of electronic and zero-point Energies=           -703.363630
 Sum of electronic and thermal Energies=              -703.355741
 Sum of electronic and thermal Enthalpies=            -703.354797
 Sum of electronic and thermal Free Energies=         -703.396952

                     E (Thermal)             CV                S
                      KCal/Mol        Cal/Mol-Kelvin    Cal/Mol-Kelvin
 Total                   96.206             28.933             88.723
 Electronic               0.000              0.000              0.000
 Translational            0.889              2.981             40.478
 Rotational               0.889              2.981             28.990
 Vibrational             94.428             22.971             19.254
 Vibration     1          0.597              1.971              4.329
 Vibration     2          0.607              1.940              3.247
 Vibration     3          0.609              1.933              3.112
 Vibration     4          0.693              1.674              1.417
 Vibration     5          0.700              1.653              1.358
 Vibration     6          0.723              1.585              1.189
 Vibration     7          0.737              1.547              1.105
 Vibration     8          0.880              1.194              0.598
 Vibration     9          0.964              1.021              0.441

 Optimization completed.
    -- Stationary point found.
 Normal termination of Gaussian 16 at Sun Jul 11 16:28:07 2021.

 ----------------------------------------------------------------------
 #p b3lyp/6-31G(d) scrf=(iefpcm,read,solvent=water) geom=allcheck guess
 =read
 ----------------------------------------------------------------------

 Structure from the checkpoint file:  "SET_328_BBB87_conf1.geo_180_090.chk"
 ----------------------------------------
 SET_328_BBB87_conf1.geo_180_090 geometry
 ----------------------------------------
 Charge =  1 Multiplicity = 1

 SCF Done:  E(RB3LYP) =  -703.509054352     A.U. after    1 cycles
 Normal termination of Gaussian 16 at Sun Jul 11 16:28:11 2021.

 -----------------------------
 #p B3LYP/6-31G* geom=allcheck
 -----------------------------

 Structure from the checkpoint file:  "SET_328_BBB87_conf1.geo_180_090.chk"
 ----------------------------------------
 SET_328_BBB87_conf1.geo_180_090 geometry
 ----------------------------------------
 Charge =  1 Multiplicity = 1

 SCF Done:  E(RB3LYP) =  -703.386822057     A.U. after   15 cycles
 Normal termination of Gaussian 16 at Sun Jul 11 16:28:20 2021.
 Gaussian 16:  ES64L-G16RevB.01 20-Dec-2017

 --------------------------------------------------------
 #p mp2/aug-cc-pVDZ scf=tight maxdisk=180GB geom=allcheck
 --------------------------------------------------------

 Structure from the checkpoint file:  "SET_328_BBB87_conf1.geo_180_090.chk"
 ----------------------------------------
 SET_328_BBB87_conf1.geo_180_090 geometry
 ----------------------------------------
 Charge =  1 Multiplicity = 1

                         Standard orientation:
 ---------------------------------------------------------------------
 Center     Atomic      Atomic             Coordinates (Angstroms)
 Number     Number       Type             X           Y           Z
 ---------------------------------------------------------------------
      1          7           0       -3.542376   -0.005592   -0.164266
      2          1           0       -3.749382   -0.894495    0.320493
      3          1           0       -4.145569    0.038293   -1.001760
      4          6           0       -2.092849    0.096304   -0.540413
      5          1           0       -1.960531    1.057529   -1.036540
      6          1           0       -1.896363   -0.703672   -1.252782
      7          6           0       -1.200652   -0.017520    0.700565
      8          1           0       -1.351767   -0.988386    1.179442
      9          1           0       -1.471138    0.759880    1.422068
     10          6           0        0.247976    0.165827    0.341971
     11          7           0        0.823908    1.330617    0.209949
     12          6           0        2.145270    1.195192   -0.156709
     13          1           0        2.749756    2.082326   -0.294566
     14          6           0        2.593559   -0.083312   -0.311907
     15          1           0        3.581398   -0.424493   -0.584079
     16         16           0        1.308824   -1.194241    0.016430
     17          1           0       -3.828136    0.766741    0.464013
 ---------------------------------------------------------------------

 SCF Done:  E(RHF) =  -700.812129080     A.U. after   14 cycles
 E2 =    -0.1190555354D+01 EUMP2 =    -0.70200268443431D+03

 The electronic state is 1-A.
 Alpha  occ. eigenvalues --  -92.11421 -15.90803 -15.70279 -11.48745 -11.44686
 Alpha  occ. eigenvalues --  -11.42610 -11.38577 -11.38428  -9.11623  -6.79770
 Alpha  occ. eigenvalues --   -6.79686  -6.79509  -1.51505  -1.40406  -1.24164
 Alpha  occ. eigenvalues --   -1.18134  -1.12612  -1.05385  -0.97301  -0.96396
 Alpha  occ. eigenvalues --   -0.91428  -0.86917  -0.84682  -0.80525  -0.79622
 Alpha  occ. eigenvalues --   -0.73538  -0.71961  -0.69512  -0.66561  -0.66049
 Alpha  occ. eigenvalues --   -0.61668  -0.54931  -0.50439  -0.45171
 Alpha virt. eigenvalues --   -0.11742  -0.07957  -0.07875  -0.06301  -0.03941
 Alpha virt. eigenvalues --   -0.03621  -0.03518  -0.02915  -0.02245  -0.02113
 Alpha virt. eigenvalues --   -0.01492  -0.01084   0.00775   0.01340   0.01447

 Mulliken charges:
               1
     1  N   -0.555837
     2  H    0.247267
     3  H    0.185997
     4  C    0.942541
     5  H   -0.089945
     6  H   -0.123593
     7  C    0.298342
     8  H   -0.091231
     9  H   -0.036815
    10  C   -0.096234
    11  N   -0.755049
    12  C    0.785233
    13  H   -0.232317
    14  C    0.237213
    15  H   -0.344943
    16  S    0.377116
    17  H    0.252255
 Sum of Mulliken charges =   1.00000

 Dipole moment (field-independent basis, Debye):
    X=            -13.0862    Y=             -1.0339    Z=             -1.0375  Tot=             13.1679
 Quadrupole moment (field-independent basis, Debye-Ang):
   XX=             12.9831   YY=            -52.5885   ZZ=            -52.5956
   XY=              0.7776   XZ=              0.0558   YZ=             -0.7393

 Normal termination of Gaussian 16 at Sun Jul 11 16:29:30 2021.
