 Gaussian 16, Revision B.01,

 -----------------------------------------------------------
 #p b3lyp/6-31G(d) opt freq scrf=(iefpcm,read,solvent=water)
 -----------------------------------------------------------

 -----------------------------------------
 SET_328_BBB212_conf1.geo_225_225 geometry
 -----------------------------------------
 Symbolic Z-matrix:
 Charge = -1 Multiplicity = 1

 SCF Done:  E(RB3LYP) =  -731.153339703     A.U. after   13 cycles
 SCF Done:  E(RB3LYP) =  -731.182503410     A.U. after   11 cycles
 SCF Done:  E(RB3LYP) =  -731.194497805     A.U. after   11 cycles
 SCF Done:  E(RB3LYP) =  -731.195756814     A.U. after   11 cycles
 SCF Done:  E(RB3LYP) =  -731.196054689     A.U. after   10 cycles
 SCF Done:  E(RB3LYP) =  -731.196215268     A.U. after   10 cycles
 SCF Done:  E(RB3LYP) =  -731.196219591     A.U. after    9 cycles
 SCF Done:  E(RB3LYP) =  -731.196255373     A.U. after    8 cycles
 SCF Done:  E(RB3LYP) =  -731.196253923     A.U. after    8 cycles
 SCF Done:  E(RB3LYP) =  -731.196252080     A.U. after    8 cycles
 SCF Done:  E(RB3LYP) =  -731.196255370     A.U. after    8 cycles
 SCF Done:  E(RB3LYP) =  -731.196257643     A.U. after    8 cycles
 SCF Done:  E(RB3LYP) =  -731.196257035     A.U. after    6 cycles
 SCF Done:  E(RB3LYP) =  -731.196257174     A.U. after    6 cycles
 Optimization completed.
    -- Stationary point found.
 Normal termination of Gaussian 16 at Sun Jul 11 16:11:33 2021.

 --------------------------------------------------------------------
 #P Geom=AllCheck Guess=TCheck SCRF=Check GenChk RB3LYP/6-31G(d) Freq
 --------------------------------------------------------------------

 Structure from the checkpoint file:  "SET_328_BBB212_conf1.geo_225_225.chk"
 -----------------------------------------
 SET_328_BBB212_conf1.geo_225_225 geometry
 -----------------------------------------
 Charge = -1 Multiplicity = 1

 SCF Done:  E(RB3LYP) =  -731.196257174     A.U. after    1 cycles

  Exact polarizability: 286.084 -11.871 201.780  38.149   0.775 193.682
 Approx polarizability: 312.586 -16.623 233.511  44.353  -1.175 225.561

                      1                      2                      3
                      A                      A                      A
 Frequencies --     19.8983                41.8848                52.3327
 Red. masses --      3.6454                 4.1823                 5.9615
 Frc consts  --      0.0009                 0.0043                 0.0096
 IR Inten    --      1.4094                 1.8468                 4.6231

                      4                      5                      6
                      A                      A                      A
 Frequencies --    103.1715               156.1518               181.6350
 Red. masses --      4.6167                 5.6535                 4.5672
 Frc consts  --      0.0290                 0.0812                 0.0888
 IR Inten    --      1.2980                 2.9070                 1.7455

                      7                      8                      9
                      A                      A                      A
 Frequencies --    226.9765               272.4047               278.8714
 Red. masses --      3.3667                 3.8120                 3.9175
 Frc consts  --      0.1022                 0.1667                 0.1795
 IR Inten    --      0.2009                 0.6685                 3.5801

                     10                     11                     12
                      A                      A                      A
 Frequencies --    309.2422               311.2984               333.7518
 Red. masses --      1.4160                 1.3666                 1.7824
 Frc consts  --      0.0798                 0.0780                 0.1170
 IR Inten    --      1.2028                 1.1623                 1.3624

                     13                     14                     15
                      A                      A                      A
 Frequencies --    344.7063               351.5744               371.7019
 Red. masses --      1.9568                 1.1849                 4.0751
 Frc consts  --      0.1370                 0.0863                 0.3317
 IR Inten    --     21.6493               173.6893                 0.6216

                     16                     17                     18
                      A                      A                      A
 Frequencies --    414.8062               422.8110               430.0424
 Red. masses --      3.8401                 3.2656                 3.3183
 Frc consts  --      0.3893                 0.3440                 0.3616
 IR Inten    --     14.4019                 4.1416                 0.8977

                     19                     20                     21
                      A                      A                      A
 Frequencies --    452.2614               483.1079               492.4617
 Red. masses --      4.7255                 3.7833                 3.4704
 Frc consts  --      0.5695                 0.5202                 0.4959
 IR Inten    --      2.5674                 2.3050                 1.6298

                     22                     23                     24
                      A                      A                      A
 Frequencies --    540.9266               562.8593               575.3685
 Red. masses --      3.8848                 2.3760                 2.3160
 Frc consts  --      0.6697                 0.4435                 0.4517
 IR Inten    --     11.1630                44.6823                29.1615

                     25                     26                     27
                      A                      A                      A
 Frequencies --    648.0889               651.8048               656.3880
 Red. masses --      6.4727                 5.8753                 6.8136
 Frc consts  --      1.6018                 1.4707                 1.7296
 IR Inten    --      3.3289                 4.6713                 1.3575

                     28                     29                     30
                      A                      A                      A
 Frequencies --    736.5331               752.8478               766.8396
 Red. masses --      4.2059                 3.9104                 2.7302
 Frc consts  --      1.3443                 1.3058                 0.9459
 IR Inten    --      9.5679                 4.7894                16.6064

                     31                     32                     33
                      A                      A                      A
 Frequencies --    818.0807               822.3659               842.2989
 Red. masses --      1.2478                 1.3084                 2.1636
 Frc consts  --      0.4920                 0.5213                 0.9044
 IR Inten    --      0.7528                13.1296                48.2622

                     34                     35                     36
                      A                      A                      A
 Frequencies --    842.9979               846.3736               851.8390
 Red. masses --      1.8291                 5.1055                 4.8750
 Frc consts  --      0.7659                 2.1548                 2.0842
 IR Inten    --     70.4476                14.5515                16.6824

                     37                     38                     39
                      A                      A                      A
 Frequencies --    925.5167               943.0417               945.1548
 Red. masses --      1.8868                 1.3724                 1.4048
 Frc consts  --      0.9523                 0.7191                 0.7394
 IR Inten    --      4.2155                 0.5622                 3.0440

                     40                     41                     42
                      A                      A                      A
 Frequencies --    948.3352               953.5185               963.0292
 Red. masses --      1.3044                 1.4412                 1.3374
 Frc consts  --      0.6912                 0.7720                 0.7308
 IR Inten    --      0.1727                 2.8594                 1.0934

                     43                     44                     45
                      A                      A                      A
 Frequencies --   1002.6085              1025.6983              1032.3927
 Red. masses --      2.8741                 1.9119                 1.6758
 Frc consts  --      1.7022                 1.1851                 1.0524
 IR Inten    --      6.5751                 4.4268                 6.0716

                     46                     47                     48
                      A                      A                      A
 Frequencies --   1102.2809              1121.6191              1128.5859
 Red. masses --      1.9107                 1.7831                 1.6199
 Frc consts  --      1.3678                 1.3216                 1.2157
 IR Inten    --     27.9256                12.5803                 6.2665

                     49                     50                     51
                      A                      A                      A
 Frequencies --   1133.6873              1167.3141              1200.9414
 Red. masses --      1.7307                 2.0251                 1.2014
 Frc consts  --      1.3106                 1.6258                 1.0209
 IR Inten    --      1.3880                13.1019                90.1878

                     52                     53                     54
                      A                      A                      A
 Frequencies --   1205.9800              1215.9083              1256.0721
 Red. masses --      1.2521                 1.4610                 3.3817
 Frc consts  --      1.0729                 1.2727                 3.1435
 IR Inten    --     79.4715               300.1349                14.5021

                     55                     56                     57
                      A                      A                      A
 Frequencies --   1262.0729              1275.7804              1304.1497
 Red. masses --      3.5406                 2.9155                 3.2370
 Frc consts  --      3.3228                 2.7958                 3.2438
 IR Inten    --     42.6535                12.8572               123.4324

                     58                     59                     60
                      A                      A                      A
 Frequencies --   1339.1080              1343.5408              1381.7734
 Red. masses --      1.7212                 2.1982                 2.1416
 Frc consts  --      1.8185                 2.3379                 2.4091
 IR Inten    --     43.8253                29.7936                88.1934

                     61                     62                     63
                      A                      A                      A
 Frequencies --   1406.2599              1410.3951              1422.7336
 Red. masses --      2.6843                 1.3695                 1.2555
 Frc consts  --      3.1276                 1.6051                 1.4973
 IR Inten    --    240.3425                76.2434                 8.3974

                     64                     65                     66
                      A                      A                      A
 Frequencies --   1461.2204              1476.3682              1510.3857
 Red. masses --      3.3565                 2.5894                 1.0579
 Frc consts  --      4.2225                 3.3253                 1.4219
 IR Inten    --     26.2350                40.7874                 4.1599

                     67                     68                     69
                      A                      A                      A
 Frequencies --   1516.2973              1522.1160              1525.1025
 Red. masses --      1.0658                 1.0643                 1.0636
 Frc consts  --      1.4437                 1.4528                 1.4575
 IR Inten    --      7.9097                 5.0372                18.3256

                     70                     71                     72
                      A                      A                      A
 Frequencies --   1551.6204              1560.6412              1567.1290
 Red. masses --      3.9765                 2.4719                 3.8753
 Frc consts  --      5.6406                 3.5472                 5.6074
 IR Inten    --    363.1464               137.6779               299.0521

                     73                     74                     75
                      A                      A                      A
 Frequencies --   1642.4212              1651.9428              1669.3422
 Red. masses --      5.9458                 5.6729                 5.8414
 Frc consts  --      9.4499                 9.1211                 9.5909
 IR Inten    --     40.6683               364.5698                58.5414

                     76                     77                     78
                      A                      A                      A
 Frequencies --   3058.6331              3064.2861              3127.6083
 Red. masses --      1.0343                 1.0354                 1.1023
 Frc consts  --      5.7013                 5.7283                 6.3529
 IR Inten    --     44.7993                50.3908                14.6009

                     79                     80                     81
                      A                      A                      A
 Frequencies --   3130.9315              3134.4252              3138.3377
 Red. masses --      1.1023                 1.1027                 1.1028
 Frc consts  --      6.3666                 6.3830                 6.3993
 IR Inten    --    105.3844                91.0105                59.7316

                     82                     83                     84
                      A                      A                      A
 Frequencies --   3148.5372              3159.5192              3168.8775
 Red. masses --      1.0850                 1.0873                 1.0928
 Frc consts  --      6.3371                 6.3952                 6.4656
 IR Inten    --     52.0665                73.2867                87.9447

                     85                     86                     87
                      A                      A                      A
 Frequencies --   3195.6311              3198.3107              3201.2272
 Red. masses --      1.0900                 1.0896                 1.0878
 Frc consts  --      6.5585                 6.5667                 6.5683
 IR Inten    --     57.0688                40.5240                 7.2644

                     88                     89                     90
                      A                      A                      A
 Frequencies --   3224.0378              3230.3511              3709.2593
 Red. masses --      1.0931                 1.0909                 1.0663
 Frc consts  --      6.6947                 6.7069                 8.6437
 IR Inten    --     35.9016                17.4943               187.0004

 - Thermochemistry -
 -------------------
 Temperature   298.150 Kelvin.  Pressure   1.00000 Atm.
 Atom     1 has atomic number  6 and mass  12.00000

 Molecular mass:   227.10720 amu.
 Principal axes and moments of inertia in atomic units:
                           1         2         3
     Eigenvalues --  2087.582616907.994647793.65018
           X            0.99996   0.00592   0.00695
           Y           -0.00593   0.99998   0.00224
           Z           -0.00694  -0.00228   0.99997
 This molecule is an asymmetric top.
 Rotational symmetry number  1.
 Warning -- assumption of classical behavior for rotation
           may cause significant error
 Rotational temperatures (Kelvin)      0.04149     0.01254     0.01111
 Rotational constants (GHZ):           0.86451     0.26125     0.23157
 Zero-point vibrational energy     687426.7 (Joules/Mol)
                                  164.29892 (Kcal/Mol)
 Warning -- explicit consideration of  24 degrees of freedom as
           vibrations may cause significant error
 Vibrational temperatures:     28.63    60.26    75.30   148.44   224.67
          (Kelvin)            261.33   326.57   391.93   401.23   444.93
                              447.89   480.19   495.96   505.84   534.80
                              596.81   608.33   618.74   650.70   695.08
                              708.54   778.27   809.83   827.83   932.46
                              937.80   944.40  1059.71  1083.18  1103.31
                             1177.04  1183.20  1211.88  1212.89  1217.74
                             1225.61  1331.61  1356.83  1359.87  1364.44
                             1371.90  1385.58  1442.53  1475.75  1485.38
                             1585.94  1613.76  1623.78  1631.12  1679.50
                             1727.89  1735.14  1749.42  1807.21  1815.84
                             1835.56  1876.38  1926.68  1933.06  1988.06
                             2023.29  2029.24  2047.00  2102.37  2124.16
                             2173.11  2181.61  2189.99  2194.28  2232.44
                             2245.41  2254.75  2363.08  2376.78  2401.81
                             4400.69  4408.82  4499.93  4504.71  4509.74
                             4515.37  4530.04  4545.84  4559.31  4597.80
                             4601.66  4605.85  4638.67  4647.75  5336.80

 Zero-point correction=                           0.261827 (Hartree/Particle)
 Thermal correction to Energy=                    0.276790
 Thermal correction to Enthalpy=                  0.277734
 Thermal correction to Gibbs Free Energy=         0.219041
 Sum of electronic and zero-point Energies=           -730.934430
 Sum of electronic and thermal Energies=              -730.919468
 Sum of electronic and thermal Enthalpies=            -730.918523
 Sum of electronic and thermal Free Energies=         -730.977216

                     E (Thermal)             CV                S
                      KCal/Mol        Cal/Mol-Kelvin    Cal/Mol-Kelvin
 Total                  173.688             60.164            123.530
 Electronic               0.000              0.000              0.000
 Translational            0.889              2.981             42.163
 Rotational               0.889              2.981             33.085
 Vibrational            171.911             54.203             48.282
 Vibration     1          0.593              1.986              6.644
 Vibration     2          0.595              1.980              5.168
 Vibration     3          0.596              1.977              4.727
 Vibration     4          0.605              1.947              3.393
 Vibration     5          0.620              1.896              2.596
 Vibration     6          0.630              1.865              2.312
 Vibration     7          0.651              1.800              1.903
 Vibration     8          0.675              1.724              1.581
 Vibration     9          0.679              1.713              1.541
 Vibration    10          0.699              1.656              1.366
 Vibration    11          0.700              1.652              1.355
 Vibration    12          0.715              1.608              1.242
 Vibration    13          0.723              1.586              1.190
 Vibration    14          0.728              1.572              1.159
 Vibration    15          0.743              1.530              1.073
 Vibration    16          0.778              1.438              0.910
 Vibration    17          0.785              1.421              0.882
 Vibration    18          0.791              1.405              0.859
 Vibration    19          0.811              1.356              0.789
 Vibration    20          0.839              1.288              0.702
 Vibration    21          0.848              1.267              0.677
 Vibration    22          0.896              1.160              0.563
 Vibration    23          0.919              1.112              0.518
 Vibration    24          0.932              1.085              0.494

 Optimization completed.
    -- Stationary point found.
 Normal termination of Gaussian 16 at Sun Jul 11 16:21:47 2021.

 ----------------------------------------------------------------------
 #p b3lyp/6-31G(d) scrf=(iefpcm,read,solvent=water) geom=allcheck guess
 =read
 ----------------------------------------------------------------------

 Structure from the checkpoint file:  "SET_328_BBB212_conf1.geo_225_225.chk"
 -----------------------------------------
 SET_328_BBB212_conf1.geo_225_225 geometry
 -----------------------------------------
 Charge = -1 Multiplicity = 1

 SCF Done:  E(RB3LYP) =  -731.196257174     A.U. after    1 cycles
 Normal termination of Gaussian 16 at Sun Jul 11 16:21:56 2021.

 -----------------------------
 #p B3LYP/6-31G* geom=allcheck
 -----------------------------

 Structure from the checkpoint file:  "SET_328_BBB212_conf1.geo_225_225.chk"
 -----------------------------------------
 SET_328_BBB212_conf1.geo_225_225 geometry
 -----------------------------------------
 Charge = -1 Multiplicity = 1

 SCF Done:  E(RB3LYP) =  -731.090347894     A.U. after   19 cycles

 The electronic state is 1-A.
 Alpha  occ. eigenvalues --  -19.09160 -18.87178 -10.15032 -10.09209 -10.08644
 Alpha  occ. eigenvalues --  -10.08465 -10.08229 -10.08141 -10.08011 -10.06415
 Alpha  occ. eigenvalues --  -10.06087 -10.03737 -10.01828 -10.01690 -10.01186
 Alpha  occ. eigenvalues --   -9.99275  -9.99073  -0.97063  -0.75693  -0.75083
 Alpha  occ. eigenvalues --   -0.70038  -0.64855  -0.64426  -0.61923  -0.57729
 Alpha  occ. eigenvalues --   -0.55892  -0.53778  -0.52443  -0.50344  -0.45192
 Alpha  occ. eigenvalues --   -0.44643  -0.42289  -0.39883  -0.37719  -0.35889
 Alpha  occ. eigenvalues --   -0.34399  -0.34001  -0.32109  -0.31281  -0.30802
 Alpha  occ. eigenvalues --   -0.29280  -0.28795  -0.27676  -0.27276  -0.26486
 Alpha  occ. eigenvalues --   -0.25902  -0.24306  -0.23835  -0.23474  -0.22133
 Alpha  occ. eigenvalues --   -0.21425  -0.19446  -0.18792  -0.16196  -0.16085
 Alpha  occ. eigenvalues --   -0.14952  -0.12270  -0.10968  -0.07318  -0.01485
 Alpha  occ. eigenvalues --    0.00788
 Alpha virt. eigenvalues --    0.09953   0.11723   0.14472   0.17586   0.19206
 Alpha virt. eigenvalues --    0.20285   0.21535   0.23577   0.25180   0.25309
 Alpha virt. eigenvalues --    0.25556   0.26352   0.26954   0.27570   0.30019

 Mulliken charges:
               1
     1  C   -0.444991
     2  H    0.112621
     3  H    0.135052
     4  H    0.137975
     5  C   -0.042623
     6  C   -0.445390
     7  H    0.138328
     8  H    0.100589
     9  H    0.141007
    10  C    0.181368
    11  C   -0.206164
    12  C   -0.201511
    13  C    0.342989
    14  O   -0.658797
    15  H    0.392903
    16  C   -0.166098
    17  C   -0.177926
    18  H    0.146463
    19  H    0.115383
    20  H    0.084327
    21  H    0.109458
    22  C    0.132626
    23  C   -0.204668
    24  H    0.055755
    25  C   -0.232851
    26  H    0.049461
    27  C    0.420891
    28  O   -0.716069
    29  C   -0.225588
    30  H    0.052929
    31  C   -0.189803
    32  H    0.062355
 Sum of Mulliken charges =  -1.00000

 Dipole moment (field-independent basis, Debye):
    X=            -14.4260    Y=              5.1916    Z=             -0.3400  Tot=             15.3355
 Quadrupole moment (field-independent basis, Debye-Ang):
   XX=           -169.0581   YY=           -117.9600   ZZ=           -102.8801
   XY=             21.8555   XZ=              9.9086   YZ=             -0.5595

 Normal termination of Gaussian 16 at Sun Jul 11 16:22:44 2021.
 Gaussian 16:  ES64L-G16RevB.01 20-Dec-2017

 --------------------------------------------------------
 #p mp2/aug-cc-pVDZ scf=tight maxdisk=180GB geom=allcheck
 --------------------------------------------------------

 Structure from the checkpoint file:  "SET_328_BBB212_conf1.geo_225_225.chk"
 -----------------------------------------
 SET_328_BBB212_conf1.geo_225_225 geometry
 -----------------------------------------
 Charge = -1 Multiplicity = 1

                         Standard orientation:
 ---------------------------------------------------------------------
 Center     Atomic      Atomic             Coordinates (Angstroms)
 Number     Number       Type             X           Y           Z
 ---------------------------------------------------------------------
      1          6           0        0.003784    2.349295    1.258590
      2          1           0       -0.897241    2.969043    1.230752
      3          1           0        0.871746    3.015130    1.292713
      4          1           0       -0.013652    1.767484    2.185335
      5          6           0        0.051784    1.443354    0.008787
      6          6           0        0.094678    2.370806   -1.223798
      7          1           0        1.005162    2.975477   -1.192075
      8          1           0       -0.761132    3.052209   -1.245457
      9          1           0        0.100338    1.802201   -2.157863
     10          6           0       -1.217762    0.571291    0.010136
     11          6           0       -2.271475    0.748525   -0.893615
     12          6           0       -3.424963   -0.040650   -0.846737
     13          6           0       -3.551931   -1.034807    0.124033
     14          8           0       -4.648546   -1.843330    0.228775
     15          1           0       -5.288109   -1.610055   -0.467069
     16          6           0       -2.511809   -1.229772    1.042388
     17          6           0       -1.370556   -0.439108    0.975998
     18          1           0       -0.568678   -0.617450    1.685808
     19          1           0       -2.610567   -2.005447    1.793552
     20          1           0       -4.221799    0.119542   -1.566292
     21          1           0       -2.204805    1.513219   -1.658812
     22          6           0        1.303583    0.551184   -0.002516
     23          6           0        2.337922    0.646271    0.941052
     24          1           0        2.259946    1.368089    1.749024
     25          6           0        3.474377   -0.158630    0.884835
     26          1           0        4.248371   -0.050784    1.642640
     27          6           0        3.677997   -1.142191   -0.138751
     28          8           0        4.722249   -1.895530   -0.198535
     29          6           0        2.605670   -1.216594   -1.095736
     30          1           0        2.696377   -1.944200   -1.900832
     31          6           0        1.480657   -0.406008   -1.021179
     32          1           0        0.702694   -0.521378   -1.774264
 ---------------------------------------------------------------------

 SCF Done:  E(RHF) =  -726.569982001     A.U. after   19 cycles
