 Gaussian 16, Revision B.01,

 -----------------------------------------------------------
 #p b3lyp/6-31G(d) opt freq scrf=(iefpcm,read,solvent=water)
 -----------------------------------------------------------

 -----------------------------------------
 SET_328_BBB212_conf1.geo_060_225 geometry
 -----------------------------------------
 Symbolic Z-matrix:
 Charge = -1 Multiplicity = 1

 SCF Done:  E(RB3LYP) =  -731.156921890     A.U. after   13 cycles
 SCF Done:  E(RB3LYP) =  -731.184663813     A.U. after   11 cycles
 SCF Done:  E(RB3LYP) =  -731.194192120     A.U. after   11 cycles
 SCF Done:  E(RB3LYP) =  -731.195615152     A.U. after   10 cycles
 SCF Done:  E(RB3LYP) =  -731.196185141     A.U. after   10 cycles
 SCF Done:  E(RB3LYP) =  -731.196105815     A.U. after   10 cycles
 SCF Done:  E(RB3LYP) =  -731.196208386     A.U. after   10 cycles
 SCF Done:  E(RB3LYP) =  -731.196245662     A.U. after    8 cycles
 SCF Done:  E(RB3LYP) =  -731.196267702     A.U. after    9 cycles
 SCF Done:  E(RB3LYP) =  -731.196286060     A.U. after    8 cycles
 SCF Done:  E(RB3LYP) =  -731.196287196     A.U. after    7 cycles
 SCF Done:  E(RB3LYP) =  -731.196285697     A.U. after    7 cycles
 Optimization completed.
    -- Stationary point found.
 Normal termination of Gaussian 16 at Sun Jul 11 16:09:50 2021.

 --------------------------------------------------------------------
 #P Geom=AllCheck Guess=TCheck SCRF=Check GenChk RB3LYP/6-31G(d) Freq
 --------------------------------------------------------------------

 Structure from the checkpoint file:  "SET_328_BBB212_conf1.geo_060_225.chk"
 -----------------------------------------
 SET_328_BBB212_conf1.geo_060_225 geometry
 -----------------------------------------
 Charge = -1 Multiplicity = 1

 SCF Done:  E(RB3LYP) =  -731.196285697     A.U. after    1 cycles

  Exact polarizability: 285.309 -11.908 201.442  38.143   0.720 194.753
 Approx polarizability: 311.686 -16.643 232.986  44.369  -1.231 226.866

 ******    1 imaginary frequencies (negative Signs) ******

                      1                      2                      3
                      A                      A                      A
 Frequencies --    -14.4843                38.0585                52.1329
 Red. masses --      3.5321                 3.9844                 6.3374
 Frc consts  --      0.0004                 0.0034                 0.0101
 IR Inten    --      3.6477                 1.2968                 5.0571

                      4                      5                      6
                      A                      A                      A
 Frequencies --    103.9373               157.0631               179.8552
 Red. masses --      4.5137                 5.3730                 4.4625
 Frc consts  --      0.0287                 0.0781                 0.0851
 IR Inten    --      1.5983                 3.9519                 2.0253

                      7                      8                      9
                      A                      A                      A
 Frequencies --    222.2295               264.2594               276.6251
 Red. masses --      3.0534                 1.3440                 2.4981
 Frc consts  --      0.0888                 0.0553                 0.1126
 IR Inten    --      0.1376               132.7172                45.0810

                     10                     11                     12
                      A                      A                      A
 Frequencies --    279.4218               297.0684               308.5813
 Red. masses --      3.9524                 1.3005                 1.4697
 Frc consts  --      0.1818                 0.0676                 0.0825
 IR Inten    --     17.8746                 0.4235                 0.9499

                     13                     14                     15
                      A                      A                      A
 Frequencies --    334.9275               345.5580               373.8867
 Red. masses --      1.8749                 2.3689                 3.8670
 Frc consts  --      0.1239                 0.1667                 0.3185
 IR Inten    --      1.4702                 1.9492                 0.6101

                     16                     17                     18
                      A                      A                      A
 Frequencies --    412.1297               422.4436               431.4347
 Red. masses --      3.9767                 3.2239                 3.2946
 Frc consts  --      0.3980                 0.3390                 0.3613
 IR Inten    --     15.7376                 2.3135                 0.8405

                     19                     20                     21
                      A                      A                      A
 Frequencies --    452.0110               484.3344               491.6656
 Red. masses --      4.7747                 3.8208                 3.4451
 Frc consts  --      0.5748                 0.5281                 0.4907
 IR Inten    --      2.7361                 2.5450                 1.7854

                     22                     23                     24
                      A                      A                      A
 Frequencies --    541.3419               564.2562               576.5008
 Red. masses --      3.8647                 2.3986                 2.3420
 Frc consts  --      0.6673                 0.4499                 0.4586
 IR Inten    --     11.1233                43.6272                28.9681

                     25                     26                     27
                      A                      A                      A
 Frequencies --    648.3095               651.9978               656.6734
 Red. masses --      6.4199                 5.8939                 6.8763
 Frc consts  --      1.5898                 1.4762                 1.7470
 IR Inten    --      3.6786                 5.0739                 1.2499

                     28                     29                     30
                      A                      A                      A
 Frequencies --    736.0234               752.7312               767.6413
 Red. masses --      4.2771                 3.8721                 2.7404
 Frc consts  --      1.3652                 1.2926                 0.9514
 IR Inten    --      9.0751                 4.9642                15.9940

                     31                     32                     33
                      A                      A                      A
 Frequencies --    817.1111               825.8459               842.4847
 Red. masses --      1.2578                 1.3086                 2.2176
 Frc consts  --      0.4948                 0.5259                 0.9274
 IR Inten    --      2.1687                13.6163                70.8526

                     34                     35                     36
                      A                      A                      A
 Frequencies --    843.8740               846.7013               851.8539
 Red. masses --      1.8757                 4.5534                 4.5255
 Frc consts  --      0.7870                 1.9233                 1.9349
 IR Inten    --     45.1695                16.0039                17.8884

                     37                     38                     39
                      A                      A                      A
 Frequencies --    925.0834               943.8223               947.5540
 Red. masses --      1.9379                 1.4660                 1.2940
 Frc consts  --      0.9771                 0.7694                 0.6845
 IR Inten    --      4.4977                 1.0285                 1.2022

                     40                     41                     42
                      A                      A                      A
 Frequencies --    949.5153               955.8201               966.4370
 Red. masses --      1.2991                 1.4494                 1.3249
 Frc consts  --      0.6901                 0.7802                 0.7291
 IR Inten    --      1.4380                 2.5885                 1.0920

                     43                     44                     45
                      A                      A                      A
 Frequencies --   1003.4090              1026.9561              1032.9548
 Red. masses --      2.8841                 1.8693                 1.7149
 Frc consts  --      1.7109                 1.1615                 1.0781
 IR Inten    --      6.5189                 4.0816                 5.6660

                     46                     47                     48
                      A                      A                      A
 Frequencies --   1102.0483              1123.2877              1128.4637
 Red. masses --      1.9091                 1.8463                 1.8070
 Frc consts  --      1.3661                 1.3725                 1.3558
 IR Inten    --     28.4299                11.7601                 6.2435

                     49                     50                     51
                      A                      A                      A
 Frequencies --   1134.0953              1166.8645              1199.2496
 Red. masses --      1.5777                 1.9989                 1.3582
 Frc consts  --      1.1956                 1.6036                 1.1509
 IR Inten    --      1.8684                13.4006               208.7676

                     52                     53                     54
                      A                      A                      A
 Frequencies --   1201.3170              1213.1583              1256.4545
 Red. masses --      1.1965                 1.2891                 3.4796
 Frc consts  --      1.0173                 1.1178                 3.2365
 IR Inten    --     84.7152               175.8482                27.2002

                     55                     56                     57
                      A                      A                      A
 Frequencies --   1262.3169              1277.5169              1304.0930
 Red. masses --      3.4985                 2.9880                 3.2694
 Frc consts  --      3.2845                 2.8732                 3.2759
 IR Inten    --     34.8623                13.5823               129.3414

                     58                     59                     60
                      A                      A                      A
 Frequencies --   1340.2311              1346.3729              1382.2450
 Red. masses --      1.7143                 2.2066                 2.1121
 Frc consts  --      1.8142                 2.3567                 2.3775
 IR Inten    --     46.8624                25.6520                81.6272

                     61                     62                     63
                      A                      A                      A
 Frequencies --   1406.5940              1411.3669              1423.0223
 Red. masses --      2.6272                 1.3847                 1.2569
 Frc consts  --      3.0625                 1.6251                 1.4996
 IR Inten    --    232.0584                77.7873                 8.0674

                     64                     65                     66
                      A                      A                      A
 Frequencies --   1461.3713              1475.9456              1506.2933
 Red. masses --      3.3065                 2.6304                 1.0586
 Frc consts  --      4.1604                 3.3761                 1.4151
 IR Inten    --     29.2958                33.5407                 6.4927

                     67                     68                     69
                      A                      A                      A
 Frequencies --   1515.8406              1520.6099              1527.2273
 Red. masses --      1.0633                 1.0627                 1.0641
 Frc consts  --      1.4394                 1.4477                 1.4623
 IR Inten    --      2.8549                 8.7481                15.9789

                     70                     71                     72
                      A                      A                      A
 Frequencies --   1553.4325              1561.7231              1567.9177
 Red. masses --      3.9718                 2.4831                 3.9098
 Frc consts  --      5.6470                 3.5683                 5.6630
 IR Inten    --    364.7111               146.1491               297.3805

                     73                     74                     75
                      A                      A                      A
 Frequencies --   1642.8399              1652.2772              1670.3852
 Red. masses --      5.9790                 5.6457                 5.8297
 Frc consts  --      9.5075                 9.0810                 9.5837
 IR Inten    --     38.3946               366.3045                56.3446

                     76                     77                     78
                      A                      A                      A
 Frequencies --   3056.0298              3062.5931              3122.0955
 Red. masses --      1.0357                 1.0361                 1.1014
 Frc consts  --      5.6991                 5.7259                 6.3256
 IR Inten    --     47.7507                52.2919                40.0111

                     79                     80                     81
                      A                      A                      A
 Frequencies --   3127.0510              3136.8234              3139.4555
 Red. masses --      1.1020                 1.1020                 1.1025
 Frc consts  --      6.3487                 6.3886                 6.4024
 IR Inten    --     99.0605                69.8337                55.2213

                     82                     83                     84
                      A                      A                      A
 Frequencies --   3150.4336              3167.1334              3170.9574
 Red. masses --      1.0848                 1.0874                 1.0921
 Frc consts  --      6.3438                 6.4266                 6.4697
 IR Inten    --     53.2366                78.6597                79.5623

                     85                     86                     87
                      A                      A                      A
 Frequencies --   3193.4561              3195.0533              3195.5471
 Red. masses --      1.0884                 1.0891                 1.0906
 Frc consts  --      6.5398                 6.5506                 6.5617
 IR Inten    --     49.0719                 4.5398                55.1837

                     88                     89                     90
                      A                      A                      A
 Frequencies --   3215.7133              3229.2992              3717.8285
 Red. masses --      1.0934                 1.0905                 1.0663
 Frc consts  --      6.6619                 6.7005                 8.6838
 IR Inten    --     32.0278                20.8004               186.4803

 - Thermochemistry -
 -------------------
 Temperature   298.150 Kelvin.  Pressure   1.00000 Atm.
 Atom     1 has atomic number  6 and mass  12.00000

 Molecular mass:   227.10720 amu.
 Principal axes and moments of inertia in atomic units:
                           1         2         3
     Eigenvalues --  2095.506026892.319957776.11611
           X            0.99996   0.00597   0.00699
           Y           -0.00598   0.99998   0.00223
           Z           -0.00697  -0.00228   0.99997
 This molecule is an asymmetric top.
 Rotational symmetry number  1.
 Warning -- assumption of classical behavior for rotation
           may cause significant error
 Rotational temperatures (Kelvin)      0.04133     0.01257     0.01114
 Rotational constants (GHZ):           0.86124     0.26185     0.23209
    1 imaginary frequencies ignored.
 Zero-point vibrational energy     686755.5 (Joules/Mol)
                                  164.13850 (Kcal/Mol)
 Warning -- explicit consideration of  23 degrees of freedom as
           vibrations may cause significant error
 Vibrational temperatures:     54.76    75.01   149.54   225.98   258.77
          (Kelvin)            319.74   380.21   398.00   402.03   427.42
                              443.98   481.89   497.18   537.94   592.96
                              607.80   620.74   650.34   696.85   707.40
                              778.87   811.84   829.46   932.77   938.08
                              944.81  1058.97  1083.01  1104.46  1175.64
                             1188.21  1212.15  1214.15  1218.21  1225.63
                             1330.99  1357.95  1363.32  1366.14  1375.21
                             1390.49  1443.68  1477.56  1486.19  1585.60
                             1616.16  1623.61  1631.71  1678.86  1725.45
                             1728.43  1745.46  1807.76  1816.19  1838.06
                             1876.30  1928.29  1937.13  1988.74  2023.78
                             2030.64  2047.41  2102.59  2123.56  2167.22
                             2180.96  2187.82  2197.34  2235.04  2246.97
                             2255.88  2363.68  2377.26  2403.31  4396.95
                             4406.39  4492.00  4499.13  4513.19  4516.98
                             4532.77  4556.80  4562.30  4594.67  4596.97
                             4597.68  4626.69  4646.24  5349.13

 Zero-point correction=                           0.261571 (Hartree/Particle)
 Thermal correction to Energy=                    0.275761
 Thermal correction to Enthalpy=                  0.276705
 Thermal correction to Gibbs Free Energy=         0.220824
 Sum of electronic and zero-point Energies=           -730.934714
 Sum of electronic and thermal Energies=              -730.920525
 Sum of electronic and thermal Enthalpies=            -730.919580
 Sum of electronic and thermal Free Energies=         -730.975462

                     E (Thermal)             CV                S
                      KCal/Mol        Cal/Mol-Kelvin    Cal/Mol-Kelvin
 Total                  173.043             58.341            117.612
 Electronic               0.000              0.000              0.000
 Translational            0.889              2.981             42.163
 Rotational               0.889              2.981             33.085
 Vibrational            171.265             52.379             42.364
 Vibration     1          0.594              1.982              5.358
 Vibration     2          0.596              1.977              4.735
 Vibration     3          0.605              1.946              3.379
 Vibration     4          0.621              1.895              2.585
 Vibration     5          0.629              1.867              2.330
 Vibration     6          0.648              1.807              1.941
 Vibration     7          0.671              1.738              1.633
 Vibration     8          0.678              1.717              1.554
 Vibration     9          0.680              1.712              1.537
 Vibration    10          0.691              1.679              1.433
 Vibration    11          0.698              1.657              1.370
 Vibration    12          0.716              1.606              1.236
 Vibration    13          0.724              1.584              1.186
 Vibration    14          0.745              1.526              1.064
 Vibration    15          0.776              1.444              0.919
 Vibration    16          0.785              1.421              0.884
 Vibration    17          0.792              1.402              0.854
 Vibration    18          0.811              1.356              0.790
 Vibration    19          0.840              1.285              0.698
 Vibration    20          0.847              1.269              0.679
 Vibration    21          0.896              1.159              0.562
 Vibration    22          0.920              1.109              0.515
 Vibration    23          0.933              1.082              0.492

                           ! Non-Optimized Parameters !
 Normal termination of Gaussian 16 at Sun Jul 11 16:20:01 2021.

 ----------------------------------------------------------------------
 #p b3lyp/6-31G(d) scrf=(iefpcm,read,solvent=water) geom=allcheck guess
 =read
 ----------------------------------------------------------------------

 Structure from the checkpoint file:  "SET_328_BBB212_conf1.geo_060_225.chk"
 -----------------------------------------
 SET_328_BBB212_conf1.geo_060_225 geometry
 -----------------------------------------
 Charge = -1 Multiplicity = 1

 SCF Done:  E(RB3LYP) =  -731.196285697     A.U. after    1 cycles
 Normal termination of Gaussian 16 at Sun Jul 11 16:20:10 2021.

 -----------------------------
 #p B3LYP/6-31G* geom=allcheck
 -----------------------------

 Structure from the checkpoint file:  "SET_328_BBB212_conf1.geo_060_225.chk"
 -----------------------------------------
 SET_328_BBB212_conf1.geo_060_225 geometry
 -----------------------------------------
 Charge = -1 Multiplicity = 1

 SCF Done:  E(RB3LYP) =  -731.090350792     A.U. after   19 cycles

 The electronic state is 1-A.
 Alpha  occ. eigenvalues --  -19.09147 -18.87163 -10.15029 -10.09205 -10.08617
 Alpha  occ. eigenvalues --  -10.08466 -10.08247 -10.08131 -10.07983 -10.06430
 Alpha  occ. eigenvalues --  -10.06109 -10.03717 -10.01826 -10.01690 -10.01187
 Alpha  occ. eigenvalues --   -9.99267  -9.99061  -0.97047  -0.75698  -0.75083
 Alpha  occ. eigenvalues --   -0.70023  -0.64848  -0.64420  -0.61920  -0.57728
 Alpha  occ. eigenvalues --   -0.55885  -0.53787  -0.52437  -0.50332  -0.45203
 Alpha  occ. eigenvalues --   -0.44626  -0.42304  -0.39869  -0.37707  -0.35885
 Alpha  occ. eigenvalues --   -0.34394  -0.33999  -0.32098  -0.31267  -0.30783
 Alpha  occ. eigenvalues --   -0.29279  -0.28779  -0.27662  -0.27280  -0.26470
 Alpha  occ. eigenvalues --   -0.25907  -0.24314  -0.23829  -0.23486  -0.22141
 Alpha  occ. eigenvalues --   -0.21418  -0.19442  -0.18802  -0.16203  -0.16079
 Alpha  occ. eigenvalues --   -0.14943  -0.12275  -0.10959  -0.07314  -0.01476
 Alpha  occ. eigenvalues --    0.00793
 Alpha virt. eigenvalues --    0.09966   0.11746   0.14483   0.17572   0.19208
 Alpha virt. eigenvalues --    0.20301   0.21542   0.23557   0.25170   0.25308
 Alpha virt. eigenvalues --    0.25510   0.26344   0.26991   0.27660   0.30023

 Mulliken charges:
               1
     1  C   -0.445644
     2  H    0.138755
     3  H    0.113021
     4  H    0.134326
     5  C   -0.042445
     6  C   -0.446144
     7  H    0.140519
     8  H    0.138883
     9  H    0.100312
    10  C    0.182616
    11  C   -0.178106
    12  C   -0.166028
    13  C    0.342585
    14  O   -0.658796
    15  H    0.392891
    16  C   -0.201336
    17  C   -0.206364
    18  H    0.109522
    19  H    0.084396
    20  H    0.115354
    21  H    0.146088
    22  C    0.132983
    23  C   -0.204686
    24  H    0.055807
    25  C   -0.232852
    26  H    0.049555
    27  C    0.421087
    28  O   -0.716175
    29  C   -0.225387
    30  H    0.052926
    31  C   -0.189907
    32  H    0.062247
 Sum of Mulliken charges =  -1.00000

 Dipole moment (field-independent basis, Debye):
    X=            -14.3975    Y=              5.1988    Z=             -0.3419  Tot=             15.3112
 Quadrupole moment (field-independent basis, Debye-Ang):
   XX=           -168.9258   YY=           -118.0192   ZZ=           -102.8056
   XY=             21.9212   XZ=              9.9250   YZ=             -0.5302

 Normal termination of Gaussian 16 at Sun Jul 11 16:20:59 2021.
 Gaussian 16:  ES64L-G16RevB.01 20-Dec-2017

 --------------------------------------------------------
 #p mp2/aug-cc-pVDZ scf=tight maxdisk=180GB geom=allcheck
 --------------------------------------------------------

 Structure from the checkpoint file:  "SET_328_BBB212_conf1.geo_060_225.chk"
 -----------------------------------------
 SET_328_BBB212_conf1.geo_060_225 geometry
 -----------------------------------------
 Charge = -1 Multiplicity = 1

                         Standard orientation:
 ---------------------------------------------------------------------
 Center     Atomic      Atomic             Coordinates (Angstroms)
 Number     Number       Type             X           Y           Z
 ---------------------------------------------------------------------
      1          6           0        0.005410    2.353801    1.259849
      2          1           0        0.010566    1.771965    2.185447
      3          1           0       -0.905796    2.959105    1.245497
      4          1           0        0.862826    3.034768    1.284074
      5          6           0        0.051565    1.447202    0.008627
      6          6           0        0.094157    2.376750   -1.222542
      7          1           0        0.090750    1.814081   -2.161043
      8          1           0        1.010668    2.971891   -1.194738
      9          1           0       -0.752571    3.071029   -1.238517
     10          6           0       -1.216738    0.573643    0.011791
     11          6           0       -1.371220   -0.430820    0.982224
     12          6           0       -2.510435   -1.224017    1.048367
     13          6           0       -3.546712   -1.037178    0.123581
     14          8           0       -4.641727   -1.848028    0.227961
     15          1           0       -5.279328   -1.619723   -0.471316
     16          6           0       -3.417366   -0.048680   -0.853214
     17          6           0       -2.265140    0.742604   -0.898278
     18          1           0       -2.194949    1.502022   -1.668236
     19          1           0       -4.210796    0.105214   -1.578519
     20          1           0       -2.610525   -1.995945    1.804486
     21          1           0       -0.571344   -0.602788    1.696855
     22          6           0        1.301912    0.552982   -0.005283
     23          6           0        2.330043    0.638781    0.945574
     24          1           0        2.246725    1.353682    1.759376
     25          6           0        3.465399   -0.168502    0.890636
     26          1           0        4.234564   -0.068939    1.653031
     27          6           0        3.672109   -1.144785   -0.138742
     28          8           0        4.715100   -1.899517   -0.198288
     29          6           0        2.605079   -1.211511   -1.101156
     30          1           0        2.698605   -1.935115   -1.909489
     31          6           0        1.481403   -0.398778   -1.027963
     32          1           0        0.706833   -0.509834   -1.785116
 ---------------------------------------------------------------------

 SCF Done:  E(RHF) =  -726.570024012     A.U. after   19 cycles
