 Gaussian 16, Revision B.01,

 -----------------------------------------------------------
 #p b3lyp/6-31G(d) opt freq scrf=(iefpcm,read,solvent=water)
 -----------------------------------------------------------

 -----------------------------------------
 SET_328_BBB286_conf1.geo_000_090 geometry
 -----------------------------------------
 Symbolic Z-matrix:
 Charge =  1 Multiplicity = 1

 SCF Done:  E(RB3LYP) =  -995.019565403     A.U. after   13 cycles
 SCF Done:  E(RB3LYP) =  -995.061691522     A.U. after   11 cycles
 SCF Done:  E(RB3LYP) =  -995.084655743     A.U. after   11 cycles
 SCF Done:  E(RB3LYP) =  -995.086959151     A.U. after   11 cycles
 SCF Done:  E(RB3LYP) =  -995.091186779     A.U. after   11 cycles
 SCF Done:  E(RB3LYP) =  -995.091965037     A.U. after   10 cycles
 SCF Done:  E(RB3LYP) =  -995.093030622     A.U. after   11 cycles
 SCF Done:  E(RB3LYP) =  -995.093419107     A.U. after   11 cycles
 SCF Done:  E(RB3LYP) =  -995.093808400     A.U. after   10 cycles
 SCF Done:  E(RB3LYP) =  -995.093758051     A.U. after   10 cycles
 SCF Done:  E(RB3LYP) =  -995.093756849     A.U. after   10 cycles
 SCF Done:  E(RB3LYP) =  -995.093585691     A.U. after   10 cycles
 SCF Done:  E(RB3LYP) =  -995.093836594     A.U. after   11 cycles
 SCF Done:  E(RB3LYP) =  -995.093831596     A.U. after    8 cycles
 SCF Done:  E(RB3LYP) =  -995.093836453     A.U. after    8 cycles
 SCF Done:  E(RB3LYP) =  -995.093835671     A.U. after    6 cycles
 Optimization completed.
    -- Stationary point found.
 Normal termination of Gaussian 16 at Sun Jul 11 17:00:30 2021.

 --------------------------------------------------------------------
 #P Geom=AllCheck Guess=TCheck SCRF=Check GenChk RB3LYP/6-31G(d) Freq
 --------------------------------------------------------------------

 Structure from the checkpoint file:  "SET_328_BBB286_conf1.geo_000_090.chk"
 -----------------------------------------
 SET_328_BBB286_conf1.geo_000_090 geometry
 -----------------------------------------
 Charge =  1 Multiplicity = 1

 SCF Done:  E(RB3LYP) =  -995.093835671     A.U. after    1 cycles

  Exact polarizability: 361.016  -2.719 316.390  22.801 -12.913 185.530
 Approx polarizability: 374.608  -5.390 368.369  24.386 -17.610 202.480

 ******    1 imaginary frequencies (negative Signs) ******

                      1                      2                      3
                      A                      A                      A
 Frequencies --    -33.6027                22.3567                36.0995
 Red. masses --      1.6150                 2.4568                 3.2458
 Frc consts  --      0.0011                 0.0007                 0.0025
 IR Inten    --      0.0480                 1.5124                 2.5019

                      4                      5                      6
                      A                      A                      A
 Frequencies --     43.6501                52.1937                99.5606
 Red. masses --      4.2973                 5.4358                 3.6285
 Frc consts  --      0.0048                 0.0087                 0.0212
 IR Inten    --      6.9438                12.9489                 2.9393

                      7                      8                      9
                      A                      A                      A
 Frequencies --    124.4347               136.7210               139.5603
 Red. masses --      3.8358                 3.4034                 2.7046
 Frc consts  --      0.0350                 0.0375                 0.0310
 IR Inten    --      1.3148                 1.2002                 4.2263

                     10                     11                     12
                      A                      A                      A
 Frequencies --    161.3480               201.0966               220.1777
 Red. masses --      4.1322                 5.0463                 1.6257
 Frc consts  --      0.0634                 0.1202                 0.0464
 IR Inten    --      0.5728                32.0804                 0.6488

                     13                     14                     15
                      A                      A                      A
 Frequencies --    235.7984               245.9914               251.9746
 Red. masses --      1.9041                 5.1798                 3.0124
 Frc consts  --      0.0624                 0.1847                 0.1127
 IR Inten    --      1.6911                 1.4044                 1.6119

                     16                     17                     18
                      A                      A                      A
 Frequencies --    294.0362               307.2901               323.8725
 Red. masses --      2.7934                 2.4418                 4.8741
 Frc consts  --      0.1423                 0.1358                 0.3012
 IR Inten    --     13.0489                 0.6648                 8.9142

                     19                     20                     21
                      A                      A                      A
 Frequencies --    340.7277               381.0454               391.5015
 Red. masses --      2.1996                 2.5268                 2.9133
 Frc consts  --      0.1505                 0.2162                 0.2631
 IR Inten    --      2.4884                 7.4653                 5.8951

                     22                     23                     24
                      A                      A                      A
 Frequencies --    408.6954               418.9579               434.4299
 Red. masses --      3.4439                 2.9777                 2.5218
 Frc consts  --      0.3389                 0.3079                 0.2804
 IR Inten    --      1.8445                 1.2634                 9.3858

                     25                     26                     27
                      A                      A                      A
 Frequencies --    445.2339               454.8007               543.5023
 Red. masses --      3.0947                 4.3418                 1.8869
 Frc consts  --      0.3615                 0.5291                 0.3284
 IR Inten    --      1.4175                 5.8065               101.7164

                     28                     29                     30
                      A                      A                      A
 Frequencies --    544.6848               558.9608               580.3425
 Red. masses --      4.3434                 1.9284                 3.8852
 Frc consts  --      0.7592                 0.3550                 0.7710
 IR Inten    --     23.8749                77.7347                 1.5048

                     31                     32                     33
                      A                      A                      A
 Frequencies --    585.6612               605.8141               617.9347
 Red. masses --      4.5089                 2.8462                 4.4114
 Frc consts  --      0.9112                 0.6154                 0.9925
 IR Inten    --      8.9451                 8.4805                 5.3096

                     34                     35                     36
                      A                      A                      A
 Frequencies --    641.5912               655.1696               712.1287
 Red. masses --      4.7870                 3.9826                 3.7799
 Frc consts  --      1.1610                 1.0072                 1.1294
 IR Inten    --      1.6807                 2.9701                13.9000

                     37                     38                     39
                      A                      A                      A
 Frequencies --    749.3772               759.0938               760.6512
 Red. masses --      3.9939                 2.5599                 4.8022
 Frc consts  --      1.3215                 0.8691                 1.6371
 IR Inten    --      0.9156                 0.6781                 6.4331

                     40                     41                     42
                      A                      A                      A
 Frequencies --    772.3670               782.0152               793.4954
 Red. masses --      1.5155                 2.8431                 5.1776
 Frc consts  --      0.5327                 1.0244                 1.9208
 IR Inten    --     80.9843                 2.2324                 2.9410

                     43                     44                     45
                      A                      A                      A
 Frequencies --    794.4329               831.1285               844.4844
 Red. masses --      5.5859                 3.3873                 3.0508
 Frc consts  --      2.0771                 1.3786                 1.2819
 IR Inten    --     45.4896                28.6114                 2.2423

                     46                     47                     48
                      A                      A                      A
 Frequencies --    867.2563               876.4476               888.6606
 Red. masses --      1.5036                 1.4646                 2.2824
 Frc consts  --      0.6663                 0.6629                 1.0620
 IR Inten    --      0.1060                 0.0032                 2.9896

                     49                     50                     51
                      A                      A                      A
 Frequencies --    903.5802               930.8681               955.4130
 Red. masses --      3.2133                 2.4793                 2.3240
 Frc consts  --      1.5458                 1.2658                 1.2499
 IR Inten    --     58.9538                 2.0633                14.9135

                     52                     53                     54
                      A                      A                      A
 Frequencies --    961.0751               962.3658              1000.7618
 Red. masses --      2.1278                 1.3320                 1.2585
 Frc consts  --      1.1580                 0.7269                 0.7426
 IR Inten    --      4.2800                 0.9975                 0.0020

                     55                     56                     57
                      A                      A                      A
 Frequencies --   1001.5533              1022.2001              1026.6452
 Red. masses --      2.0484                 3.0197                 3.2127
 Frc consts  --      1.2106                 1.8590                 1.9951
 IR Inten    --     32.9763                14.6064                 5.5318

                     58                     59                     60
                      A                      A                      A
 Frequencies --   1030.3550              1050.4405              1071.4818
 Red. masses --      2.1608                 2.2777                 2.4453
 Frc consts  --      1.3515                 1.4808                 1.6541
 IR Inten    --     17.6910                19.6832                62.1780

                     61                     62                     63
                      A                      A                      A
 Frequencies --   1078.3693              1096.7526              1107.7671
 Red. masses --      3.6304                 1.8841                 1.5841
 Frc consts  --      2.4874                 1.3353                 1.1454
 IR Inten    --     13.9580                 1.0437                14.2526

                     64                     65                     66
                      A                      A                      A
 Frequencies --   1140.0913              1143.5307              1152.3725
 Red. masses --      1.6690                 2.2389                 1.4705
 Frc consts  --      1.2781                 1.7249                 1.1506
 IR Inten    --      5.2615                36.7101                12.7776

                     67                     68                     69
                      A                      A                      A
 Frequencies --   1155.2128              1157.9851              1161.0614
 Red. masses --      1.2973                 1.2566                 1.7912
 Frc consts  --      1.0200                 0.9928                 1.4227
 IR Inten    --      1.4815                 3.3584                25.9139

                     70                     71                     72
                      A                      A                      A
 Frequencies --   1179.7531              1192.4700              1193.6458
 Red. masses --      1.5142                 1.2104                 1.3070
 Frc consts  --      1.2417                 1.0141                 1.0972
 IR Inten    --     17.9323                15.8875                72.0965

                     73                     74                     75
                      A                      A                      A
 Frequencies --   1202.8002              1248.7062              1267.2359
 Red. masses --      1.2865                 2.0327                 1.7473
 Frc consts  --      1.0966                 1.8674                 1.6532
 IR Inten    --      3.1425               191.1572                 6.0680

                     76                     77                     78
                      A                      A                      A
 Frequencies --   1290.6082              1298.3829              1302.7704
 Red. masses --      1.4326                 1.4146                 1.2085
 Frc consts  --      1.4059                 1.4051                 1.2084
 IR Inten    --      3.9730                24.2361                15.4900

                     79                     80                     81
                      A                      A                      A
 Frequencies --   1314.0692              1336.2015              1342.2845
 Red. masses --      1.4050                 1.4496                 3.8750
 Frc consts  --      1.4294                 1.5249                 4.1135
 IR Inten    --     91.8000                24.2279                80.2442

                     82                     83                     84
                      A                      A                      A
 Frequencies --   1360.3903              1370.2133              1380.6779
 Red. masses --      1.9723                 1.4128                 1.3252
 Frc consts  --      2.1505                 1.5628                 1.4884
 IR Inten    --     19.8567                 5.2479                 4.4492

                     85                     86                     87
                      A                      A                      A
 Frequencies --   1397.1267              1404.9292              1405.9273
 Red. masses --      1.3597                 1.4862                 2.5125
 Frc consts  --      1.5638                 1.7284                 2.9261
 IR Inten    --     20.2667                14.9314                 6.8887

                     88                     89                     90
                      A                      A                      A
 Frequencies --   1406.8967              1414.2641              1417.5592
 Red. masses --      4.2125                 1.3624                 1.3830
 Frc consts  --      4.9126                 1.6055                 1.6374
 IR Inten    --     34.9096                 8.1913                 4.4125

                     91                     92                     93
                      A                      A                      A
 Frequencies --   1418.8683              1426.5413              1439.3929
 Red. masses --      1.3982                 1.4358                 2.8999
 Frc consts  --      1.6584                 1.7216                 3.5399
 IR Inten    --      6.9867                23.9735                69.6459

                     94                     95                     96
                      A                      A                      A
 Frequencies --   1445.8331              1460.5362              1466.2624
 Red. masses --      2.3724                 1.3607                 1.2281
 Frc consts  --      2.9219                 1.7101                 1.5556
 IR Inten    --     15.8368                28.8718                 9.8961

                     97                     98                     99
                      A                      A                      A
 Frequencies --   1477.2106              1490.4417              1497.1328
 Red. masses --      1.6086                 1.1629                 1.1232
 Frc consts  --      2.0681                 1.5221                 1.4833
 IR Inten    --      9.5534                30.0076                58.0463

                    100                    101                    102
                      A                      A                      A
 Frequencies --   1499.9714              1503.6770              1510.4053
 Red. masses --      1.0505                 1.1286                 1.0818
 Frc consts  --      1.3926                 1.5035                 1.4541
 IR Inten    --     16.1066                79.6052                16.6770

                    103                    104                    105
                      A                      A                      A
 Frequencies --   1513.4811              1519.6323              1522.0469
 Red. masses --      1.9812                 1.0730                 1.1700
 Frc consts  --      2.6738                 1.4599                 1.5969
 IR Inten    --     45.2636                24.7522                53.4659

                    106                    107                    108
                      A                      A                      A
 Frequencies --   1524.1917              1537.9175              1544.5606
 Red. masses --      1.3509                 1.3373                 1.7930
 Frc consts  --      1.8491                 1.8635                 2.5202
 IR Inten    --      1.1551               100.9454                48.1547

                    109                    110                    111
                      A                      A                      A
 Frequencies --   1561.8794              1571.5760              1627.3423
 Red. masses --      1.1114                 2.1888                 6.4614
 Frc consts  --      1.5974                 3.1852                10.0817
 IR Inten    --     36.2775               561.0378                17.2698

                    112                    113                    114
                      A                      A                      A
 Frequencies --   1673.0952              1705.8114              3063.8102
 Red. masses --      6.8757                 9.1576                 1.0678
 Frc consts  --     11.3399                15.6999                 5.9057
 IR Inten    --     11.6353               457.8016                42.9446

                    115                    116                    117
                      A                      A                      A
 Frequencies --   3077.0978              3078.6292              3085.3646
 Red. masses --      1.0818                 1.0626                 1.0345
 Frc consts  --      6.0352                 5.9341                 5.8021
 IR Inten    --      8.9981                33.2985                69.0035

                    118                    119                    120
                      A                      A                      A
 Frequencies --   3093.6084              3100.7315              3102.5643
 Red. masses --      1.0692                 1.0671                 1.0685
 Frc consts  --      6.0291                 6.0446                 6.0598
 IR Inten    --     27.0242                51.3065                43.6760

                    121                    122                    123
                      A                      A                      A
 Frequencies --   3117.6954              3120.5548              3123.5090
 Red. masses --      1.0977                 1.0997                 1.0843
 Frc consts  --      6.2864                 6.3096                 6.2330
 IR Inten    --     33.5556                39.2565                32.0832

                    124                    125                    126
                      A                      A                      A
 Frequencies --   3124.2537              3126.5596              3136.0276
 Red. masses --      1.0501                 1.0719                 1.1023
 Frc consts  --      6.0394                 6.1738                 6.3873
 IR Inten    --      5.9294                24.0047                29.7077

                    127                    128                    129
                      A                      A                      A
 Frequencies --   3152.0636              3155.2925              3161.2754
 Red. masses --      1.1068                 1.0963                 1.0962
 Frc consts  --      6.4792                 6.4306                 6.4546
 IR Inten    --     20.6803                12.6849                27.7333

                    130                    131                    132
                      A                      A                      A
 Frequencies --   3205.6818              3208.5579              3212.7466
 Red. masses --      1.1028                 1.0870                 1.1082
 Frc consts  --      6.6773                 6.5932                 6.7394
 IR Inten    --      4.6003                 6.6242                 4.6424

                    133                    134                    135
                      A                      A                      A
 Frequencies --   3220.0783              3232.2137              3237.2129
 Red. masses --      1.0904                 1.0959                 1.1064
 Frc consts  --      6.6613                 6.7455                 6.8313
 IR Inten    --     26.1536                29.1673                 9.5012

                    136                    137                    138
                      A                      A                      A
 Frequencies --   3249.6432              3396.0254              3590.8877
 Red. masses --      1.0936                 1.0786                 1.0786
 Frc consts  --      6.8041                 7.3293                 8.1941
 IR Inten    --     11.4630               144.8953               105.9819

 - Thermochemistry -
 -------------------
 Temperature   298.150 Kelvin.  Pressure   1.00000 Atm.
 Atom     1 has atomic number  6 and mass  12.00000

 Molecular mass:   313.20284 amu.
 Principal axes and moments of inertia in atomic units:
                           1         2         3
     Eigenvalues --  2869.86425********************
           X            0.99999   0.00489   0.00087
           Y           -0.00489   0.99999  -0.00042
           Z           -0.00087   0.00042   1.00000
 This molecule is an asymmetric top.
 Rotational symmetry number  1.
 Warning -- assumption of classical behavior for rotation
           may cause significant error
 Rotational temperatures (Kelvin)      0.03018     0.00606     0.00551
 Rotational constants (GHZ):           0.62886     0.12629     0.11490
    1 imaginary frequencies ignored.
 Zero-point vibrational energy    1113026.2 (Joules/Mol)
                                  266.01964 (Kcal/Mol)
 Warning -- explicit consideration of  32 degrees of freedom as
           vibrations may cause significant error
 Vibrational temperatures:     32.17    51.94    62.80    75.10   143.25
          (Kelvin)            179.03   196.71   200.80   232.14   289.33
                              316.79   339.26   353.93   362.54   423.05
                              442.12   465.98   490.23   548.24   563.28
                              588.02   602.79   625.05   640.59   654.36
                              781.98   783.68   804.22   834.98   842.64
                              871.63   889.07   923.11   942.64  1024.59
                             1078.19  1092.17  1094.41  1111.26  1125.15
                             1141.66  1143.01  1195.81  1215.02  1247.79
                             1261.01  1278.58  1300.05  1339.31  1374.63
                             1382.77  1384.63  1439.87  1441.01  1470.72
                             1477.11  1482.45  1511.35  1541.62  1551.53
                             1577.98  1593.83  1640.34  1645.29  1658.01
                             1662.09  1666.08  1670.51  1697.40  1715.70
                             1717.39  1730.56  1796.61  1823.27  1856.90
                             1868.08  1874.40  1890.65  1922.50  1931.25
                             1957.30  1971.43  1986.49  2010.15  2021.38
                             2022.82  2024.21  2034.81  2039.55  2041.44
                             2052.47  2070.97  2080.23  2101.39  2109.62
                             2125.38  2144.41  2154.04  2158.12  2163.46
                             2173.14  2177.56  2186.41  2189.89  2192.97
                             2212.72  2222.28  2247.20  2261.15  2341.38
                             2407.21  2454.28  4408.14  4427.26  4429.46
                             4439.15  4451.01  4461.26  4463.90  4485.67
                             4489.78  4494.03  4495.10  4498.42  4512.04
                             4535.12  4539.76  4548.37  4612.26  4616.40
                             4622.43  4632.97  4650.43  4657.63  4675.51
                             4886.12  5166.49

 Zero-point correction=                           0.423929 (Hartree/Particle)
 Thermal correction to Energy=                    0.443304
 Thermal correction to Enthalpy=                  0.444248
 Thermal correction to Gibbs Free Energy=         0.375473
 Sum of electronic and zero-point Energies=           -994.669906
 Sum of electronic and thermal Energies=              -994.650532
 Sum of electronic and thermal Enthalpies=            -994.649588
 Sum of electronic and thermal Free Energies=         -994.718362

                     E (Thermal)             CV                S
                      KCal/Mol        Cal/Mol-Kelvin    Cal/Mol-Kelvin
 Total                  278.177             78.505            144.748
 Electronic               0.000              0.000              0.000
 Translational            0.889              2.981             43.121
 Rotational               0.889              2.981             34.820
 Vibrational            276.400             72.544             66.807
 Vibration     1          0.593              1.985              6.413
 Vibration     2          0.594              1.982              5.462
 Vibration     3          0.595              1.980              5.086
 Vibration     4          0.596              1.977              4.732
 Vibration     5          0.604              1.949              3.463
 Vibration     6          0.610              1.929              3.030
 Vibration     7          0.614              1.917              2.849
 Vibration     8          0.615              1.914              2.810
 Vibration     9          0.622              1.890              2.534
 Vibration    10          0.638              1.838              2.123
 Vibration    11          0.647              1.810              1.958
 Vibration    12          0.655              1.786              1.834
 Vibration    13          0.660              1.769              1.759
 Vibration    14          0.664              1.759              1.717
 Vibration    15          0.689              1.685              1.451
 Vibration    16          0.697              1.660              1.377
 Vibration    17          0.708              1.628              1.290
 Vibration    18          0.720              1.594              1.209
 Vibration    19          0.751              1.511              1.035
 Vibration    20          0.759              1.488              0.994
 Vibration    21          0.773              1.451              0.931
 Vibration    22          0.782              1.429              0.896
 Vibration    23          0.795              1.395              0.844
 Vibration    24          0.805              1.371              0.810
 Vibration    25          0.813              1.350              0.781
 Vibration    26          0.899              1.154              0.558
 Vibration    27          0.900              1.151              0.555
 Vibration    28          0.915              1.120              0.526
 Vibration    29          0.937              1.074              0.485
 Vibration    30          0.943              1.062              0.475
 Vibration    31          0.964              1.019              0.440
 Vibration    32          0.978              0.994              0.420

                           ! Non-Optimized Parameters !
 Normal termination of Gaussian 16 at Sun Jul 11 17:29:59 2021.

 ----------------------------------------------------------------------
 #p b3lyp/6-31G(d) scrf=(iefpcm,read,solvent=water) geom=allcheck guess
 =read
 ----------------------------------------------------------------------

 Structure from the checkpoint file:  "SET_328_BBB286_conf1.geo_000_090.chk"
 -----------------------------------------
 SET_328_BBB286_conf1.geo_000_090 geometry
 -----------------------------------------
 Charge =  1 Multiplicity = 1

 SCF Done:  E(RB3LYP) =  -995.093835671     A.U. after    1 cycles
 Normal termination of Gaussian 16 at Sun Jul 11 17:30:18 2021.

 -----------------------------
 #p B3LYP/6-31G* geom=allcheck
 -----------------------------

 Structure from the checkpoint file:  "SET_328_BBB286_conf1.geo_000_090.chk"
 -----------------------------------------
 SET_328_BBB286_conf1.geo_000_090 geometry
 -----------------------------------------
 Charge =  1 Multiplicity = 1

 SCF Done:  E(RB3LYP) =  -995.000849417     A.U. after   16 cycles
 Normal termination of Gaussian 16 at Sun Jul 11 17:31:51 2021.
 Gaussian 16:  ES64L-G16RevB.01 20-Dec-2017

 --------------------------------------------------------
 #p mp2/aug-cc-pVDZ scf=tight maxdisk=180GB geom=allcheck
 --------------------------------------------------------

 Structure from the checkpoint file:  "SET_328_BBB286_conf1.geo_000_090.chk"
 -----------------------------------------
 SET_328_BBB286_conf1.geo_000_090 geometry
 -----------------------------------------
 Charge =  1 Multiplicity = 1

                         Standard orientation:
 ---------------------------------------------------------------------
 Center     Atomic      Atomic             Coordinates (Angstroms)
 Number     Number       Type             X           Y           Z
 ---------------------------------------------------------------------
      1          6           0        3.444604    3.019070   -0.332631
      2          1           0        3.841758    3.376423    0.620398
      3          1           0        2.537324    3.567190   -0.577919
      4          1           0        4.189077    3.176172   -1.115844
      5          7           0        3.095185    1.612665   -0.244944
      6          6           0        3.931923    0.550930   -0.013741
      7          6           0        3.119623   -0.609393   -0.005466
      8          6           0        3.709848   -1.870989    0.200230
      9          6           0        5.079802   -1.928126    0.391461
     10          6           0        5.874417   -0.755546    0.382701
     11          6           0        5.321510    0.498254    0.181704
     12          1           0        5.933654    1.393025    0.176056
     13          1           0        6.944670   -0.843061    0.536446
     14          1           0        5.560095   -2.887672    0.551192
     15          1           0        3.097926   -2.763708    0.205318
     16          7           0        1.816231    1.215719   -0.381276
     17          6           0        1.801575   -0.109288   -0.243292
     18          6           0        0.546438   -0.885122   -0.349790
     19          8           0        0.535609   -2.117780   -0.215761
     20          7           0       -0.577406   -0.165775   -0.599490
     21          1           0       -0.460166    0.811244   -0.842411
     22          6           0       -1.844159   -0.832990   -0.898396
     23          6           0       -2.815311    0.115435   -1.631421
     24          1           0       -2.256434    0.838436   -2.231488
     25          1           0       -3.382753   -0.481668   -2.349199
     26          1           0       -1.596935   -1.647890   -1.584526
     27          6           0       -2.496907   -1.511962    0.337229
     28          1           0       -1.711655   -1.823615    1.027207
     29          1           0       -2.970358   -2.433185   -0.013398
     30          6           0       -3.549076   -0.715020    1.126033
     31          1           0       -4.133187   -1.423043    1.717297
     32          6           0       -3.044701    0.398261    2.053276
     33          1           0       -2.319181   -0.042164    2.742878
     34          1           0       -3.888240    0.736889    2.665479
     35          6           0       -2.426268    1.585084    1.306598
     36          1           0       -1.425663    1.315111    0.969658
     37          1           0       -2.307268    2.425540    1.994501
     38          6           0       -3.287659    2.034511    0.117380
     39          1           0       -2.730127    2.722655   -0.524343
     40          1           0       -4.154914    2.591960    0.488247
     41          6           0       -3.821086    0.889579   -0.761972
     42          1           0       -4.593300    1.291307   -1.420509
     43          7           0       -4.547699   -0.094160    0.153475
     44          6           0       -5.379748   -1.103517   -0.575493
     45          1           0       -4.742747   -1.750690   -1.171084
     46          1           0       -6.078251   -0.567939   -1.217617
     47          1           0       -5.919692   -1.691062    0.164549
     48          1           0       -5.211646    0.457809    0.714377
 ---------------------------------------------------------------------

 SCF Done:  E(RHF) =  -988.767729638     A.U. after   17 cycles
 E2 =    -0.3425699481D+01 EUMP2 =    -0.99219342911872D+03

 The electronic state is 1-A.
 Alpha  occ. eigenvalues --  -20.62694 -15.84196 -15.73255 -15.71085 -15.69610
 Alpha  occ. eigenvalues --  -11.46037 -11.44747 -11.44181 -11.44007 -11.40989
 Alpha  occ. eigenvalues --  -11.38633 -11.38173 -11.37571 -11.37002 -11.36168
 Alpha  occ. eigenvalues --  -11.36116 -11.36100 -11.36097 -11.32215 -11.32013
 Alpha  occ. eigenvalues --  -11.31970 -11.31897 -11.30783  -1.48322  -1.47833
 Alpha  occ. eigenvalues --   -1.46889  -1.34745  -1.24690  -1.23146  -1.22675
 Alpha  occ. eigenvalues --   -1.22118  -1.19071  -1.12507  -1.11391  -1.09580
 Alpha  occ. eigenvalues --   -1.08096  -1.06258  -1.03108  -0.99574  -0.97199
 Alpha  occ. eigenvalues --   -0.95095  -0.92851  -0.90573  -0.89453  -0.87527
 Alpha  occ. eigenvalues --   -0.84165  -0.83692  -0.81039  -0.80842  -0.79982
 Alpha  occ. eigenvalues --   -0.77611  -0.75686  -0.74765  -0.74620  -0.74224
 Alpha  occ. eigenvalues --   -0.74042  -0.73584  -0.72541  -0.71492  -0.71212
 Alpha  occ. eigenvalues --   -0.70500  -0.69743  -0.68339  -0.68088  -0.67499
 Alpha  occ. eigenvalues --   -0.66152  -0.65394  -0.64459  -0.64324  -0.64217
 Alpha  occ. eigenvalues --   -0.62018  -0.61765  -0.60154  -0.59655  -0.59398
 Alpha  occ. eigenvalues --   -0.58820  -0.57299  -0.56457  -0.55374  -0.52403
 Alpha  occ. eigenvalues --   -0.49797  -0.47413  -0.40062  -0.37829
 Alpha virt. eigenvalues --   -0.07822  -0.05770  -0.05533  -0.04912  -0.03573
 Alpha virt. eigenvalues --   -0.03449  -0.03275  -0.03018  -0.02415  -0.01697
 Alpha virt. eigenvalues --   -0.01393  -0.01095  -0.00685  -0.00483  -0.00280

 Mulliken charges:
               1
     1  C    0.861359
     2  H   -0.080173
     3  H   -0.258508
     4  H   -0.125657
     5  N   -0.723464
     6  C   -0.170310
     7  C    0.552422
     8  C    1.302899
     9  C    0.252677
    10  C    0.477740
    11  C    0.999295
    12  H   -0.573537
    13  H   -0.464411
    14  H   -0.484424
    15  H   -0.539269
    16  N   -0.997795
    17  C    0.332911
    18  C    0.245230
    19  O   -0.847846
    20  N    0.365895
    21  H   -0.087432
    22  C   -0.140153
    23  C    0.627552
    24  H   -0.313348
    25  H   -0.011365
    26  H   -0.475093
    27  C    0.563563
    28  H   -0.324428
    29  H   -0.013328
    30  C    0.603277
    31  H   -0.390828
    32  C    0.586917
    33  H   -0.140687
    34  H   -0.103069
    35  C    0.625521
    36  H   -0.209923
    37  H   -0.148570
    38  C    0.581607
    39  H   -0.163916
    40  H   -0.085772
    41  C    0.488178
    42  H   -0.387965
    43  N   -0.968155
    44  C    0.765188
    45  H   -0.065892
    46  H   -0.075534
    47  H   -0.094756
    48  H    0.233375
 Sum of Mulliken charges =   1.00000

 Dipole moment (field-independent basis, Debye):
    X=            -15.3016    Y=              3.8106    Z=              0.0529  Tot=             15.7691
 Quadrupole moment (field-independent basis, Debye-Ang):
   XX=            -18.0860   YY=           -122.6093   ZZ=           -130.2306
   XY=             10.5988   XZ=              1.2795   YZ=             -1.6810

 Normal termination of Gaussian 16 at Sun Jul 11 19:12:50 2021.
