 Gaussian 16, Revision B.01,

 -----------------------------------------------------------
 #p b3lyp/6-31G(d) opt freq scrf=(iefpcm,read,solvent=water)
 -----------------------------------------------------------

 -----------------------------------------
 SET_328_BBB285_conf1.geo_300_300 geometry
 -----------------------------------------
 Symbolic Z-matrix:
 Charge = -1 Multiplicity = 1

 SCF Done:  E(RB3LYP) =  -906.618732738     A.U. after   13 cycles
 SCF Done:  E(RB3LYP) =  -906.653593034     A.U. after   11 cycles
 SCF Done:  E(RB3LYP) =  -906.654627856     A.U. after   12 cycles
 SCF Done:  E(RB3LYP) =  -906.667050318     A.U. after   12 cycles
 SCF Done:  E(RB3LYP) =  -906.665356109     A.U. after   11 cycles
 SCF Done:  E(RB3LYP) =  -906.669103447     A.U. after   11 cycles
 SCF Done:  E(RB3LYP) =  -906.668689745     A.U. after   10 cycles
 SCF Done:  E(RB3LYP) =  -906.669690514     A.U. after   10 cycles
 SCF Done:  E(RB3LYP) =  -906.669731125     A.U. after    9 cycles
 SCF Done:  E(RB3LYP) =  -906.669714975     A.U. after   10 cycles
 SCF Done:  E(RB3LYP) =  -906.669882025     A.U. after    7 cycles
 SCF Done:  E(RB3LYP) =  -906.669881891     A.U. after    7 cycles
 SCF Done:  E(RB3LYP) =  -906.669882226     A.U. after    7 cycles
 SCF Done:  E(RB3LYP) =  -906.669882609     A.U. after    7 cycles
 SCF Done:  E(RB3LYP) =  -906.669883118     A.U. after    7 cycles
 SCF Done:  E(RB3LYP) =  -906.669883631     A.U. after    7 cycles
 Optimization completed.
    -- Stationary point found.
 Normal termination of Gaussian 16 at Sun Jul 11 16:31:41 2021.

 --------------------------------------------------------------------
 #P Geom=AllCheck Guess=TCheck SCRF=Check GenChk RB3LYP/6-31G(d) Freq
 --------------------------------------------------------------------

 Structure from the checkpoint file:  "SET_328_BBB285_conf1.geo_300_300.chk"
 -----------------------------------------
 SET_328_BBB285_conf1.geo_300_300 geometry
 -----------------------------------------
 Charge = -1 Multiplicity = 1

 SCF Done:  E(RB3LYP) =  -906.669883631     A.U. after    1 cycles

  Exact polarizability: 196.339   6.719 174.234  -0.523  -3.871 110.402
 Approx polarizability: 214.653  11.449 204.846   2.705  -4.450 123.651

                      1                      2                      3
                      A                      A                      A
 Frequencies --     13.1038                30.0057                45.6441
 Red. masses --      5.9525                 6.6711                 7.6203
 Frc consts  --      0.0006                 0.0035                 0.0094
 IR Inten    --      0.3082                10.8298                11.1100

                      4                      5                      6
                      A                      A                      A
 Frequencies --     72.7698                94.9450               122.9550
 Red. masses --      6.0681                 6.1487                 5.4275
 Frc consts  --      0.0189                 0.0327                 0.0483
 IR Inten    --      1.0856                10.2289                 6.3453

                      7                      8                      9
                      A                      A                      A
 Frequencies --    154.9160               189.8623               209.3717
 Red. masses --      5.8692                 7.2993                 6.8255
 Frc consts  --      0.0830                 0.1550                 0.1763
 IR Inten    --     14.8523                 3.1057                22.1421

                     10                     11                     12
                      A                      A                      A
 Frequencies --    250.7897               259.0905               293.5610
 Red. masses --      2.4193                 2.6781                 2.6898
 Frc consts  --      0.0897                 0.1059                 0.1366
 IR Inten    --     70.0192                41.8892                23.1546

                     13                     14                     15
                      A                      A                      A
 Frequencies --    304.8007               321.8483               335.7725
 Red. masses --      2.1825                 6.0470                 5.6176
 Frc consts  --      0.1195                 0.3691                 0.3732
 IR Inten    --    132.9568                 7.1421                28.7267

                     16                     17                     18
                      A                      A                      A
 Frequencies --    367.7513               386.0252               429.0867
 Red. masses --      2.6611                 1.8990                 6.3828
 Frc consts  --      0.2120                 0.1667                 0.6924
 IR Inten    --     44.7877               230.2200                10.0487

                     19                     20                     21
                      A                      A                      A
 Frequencies --    485.4427               528.1783               564.1300
 Red. masses --      3.9480                 6.5649                 6.3285
 Frc consts  --      0.5482                 1.0790                 1.1866
 IR Inten    --     13.5826                 4.2147                 9.9830

                     22                     23                     24
                      A                      A                      A
 Frequencies --    629.3130               641.2414               674.2556
 Red. masses --      4.0964                 4.0215                 1.1634
 Frc consts  --      0.9558                 0.9743                 0.3116
 IR Inten    --     40.0794                21.7501               162.8145

                     25                     26                     27
                      A                      A                      A
 Frequencies --    685.5331               739.2529               748.7068
 Red. masses --      8.7952                 1.4075                 5.7817
 Frc consts  --      2.4353                 0.4532                 1.9095
 IR Inten    --      4.2000                80.6080                 4.5637

                     28                     29                     30
                      A                      A                      A
 Frequencies --    750.6673               768.2937               778.4513
 Red. masses --      6.2822                 3.9172                 4.3682
 Frc consts  --      2.0857                 1.3623                 1.5596
 IR Inten    --     56.9257                11.9123                 1.5547

                     31                     32                     33
                      A                      A                      A
 Frequencies --    834.0364               852.0369               883.7884
 Red. masses --      5.2349                 2.8928                 3.1089
 Frc consts  --      2.1455                 1.2373                 1.4307
 IR Inten    --    212.1883                38.8349                21.1437

                     34                     35                     36
                      A                      A                      A
 Frequencies --    887.7958               928.2018              1001.7018
 Red. masses --      1.4262                 3.6429                 2.2875
 Frc consts  --      0.6623                 1.8492                 1.3523
 IR Inten    --     15.5272                61.0995                83.1105

                     37                     38                     39
                      A                      A                      A
 Frequencies --   1015.9311              1016.5953              1042.5235
 Red. masses --      4.5182                 3.9802                 4.3383
 Frc consts  --      2.7475                 2.4235                 2.7781
 IR Inten    --     29.9646                65.4061                68.0099

                     40                     41                     42
                      A                      A                      A
 Frequencies --   1050.9330              1073.0293              1112.3363
 Red. masses --      2.4647                 4.9523                 3.3275
 Frc consts  --      1.6038                 3.3595                 2.4257
 IR Inten    --     46.9545               153.0219               284.3803

                     43                     44                     45
                      A                      A                      A
 Frequencies --   1130.8417              1153.8893              1162.0130
 Red. masses --      2.6664                 3.8557                 1.8974
 Frc consts  --      2.0090                 3.0247                 1.5095
 IR Inten    --     88.5264                80.1846                38.0614

                     46                     47                     48
                      A                      A                      A
 Frequencies --   1198.0082              1220.2858              1238.7772
 Red. masses --      1.5672                 1.1362                 1.5296
 Frc consts  --      1.3252                 0.9968                 1.3830
 IR Inten    --    149.0882                 5.2052                83.7391

                     49                     50                     51
                      A                      A                      A
 Frequencies --   1243.4018              1266.1611              1309.0348
 Red. masses --      1.3841                 1.6392                 1.7325
 Frc consts  --      1.2608                 1.5483                 1.7492
 IR Inten    --     48.5760                30.0485                 3.8795

                     52                     53                     54
                      A                      A                      A
 Frequencies --   1316.4337              1326.3614              1358.2614
 Red. masses --      3.1866                 1.5422                 4.8892
 Frc consts  --      3.2536                 1.5985                 5.3145
 IR Inten    --     63.9134                31.0649               359.2441

                     55                     56                     57
                      A                      A                      A
 Frequencies --   1372.7831              1377.9635              1388.2533
 Red. masses --      1.4856                 1.5869                 1.3663
 Frc consts  --      1.6496                 1.7753                 1.5515
 IR Inten    --     17.9186                20.3980                 3.3876

                     58                     59                     60
                      A                      A                      A
 Frequencies --   1408.8418              1412.6358              1419.6068
 Red. masses --      1.4013                 1.2795                 3.9301
 Frc consts  --      1.6387                 1.5043                 4.6665
 IR Inten    --     28.8908                42.1317                87.8332

                     61                     62                     63
                      A                      A                      A
 Frequencies --   1432.6046              1447.7254              1455.4214
 Red. masses --      1.7447                 1.5165                 4.0576
 Frc consts  --      2.1097                 1.8727                 5.0640
 IR Inten    --     56.0362                20.6786                82.2929

                     64                     65                     66
                      A                      A                      A
 Frequencies --   1496.9408              1505.3410              1541.0296
 Red. masses --      1.1384                 1.1319                 5.7050
 Frc consts  --      1.5030                 1.5112                 7.9823
 IR Inten    --     83.8200                53.9961                27.4665

                     67                     68                     69
                      A                      A                      A
 Frequencies --   1654.7532              3074.2919              3081.6013
 Red. masses --      8.1979                 1.0752                 1.0781
 Frc consts  --     13.2256                 5.9873                 6.0322
 IR Inten    --    648.9985                 8.1348                70.1629

                     70                     71                     72
                      A                      A                      A
 Frequencies --   3092.9798              3140.8216              3157.8127
 Red. masses --      1.0843                 1.0877                 1.0875
 Frc consts  --      6.1115                 6.3221                 6.3895
 IR Inten    --    102.5720                55.9588                22.4166

                     73                     74                     75
                      A                      A                      A
 Frequencies --   3160.2833              3314.8177              3441.7657
 Red. masses --      1.0997                 1.0974                 1.0673
 Frc consts  --      6.4713                 7.1045                 7.4490
 IR Inten    --     23.4863                 1.6967               601.5102

                     76                     77                     78
                      A                      A                      A
 Frequencies --   3460.8014              3708.2267              3717.7778
 Red. masses --      1.0732                 1.0661                 1.0665
 Frc consts  --      7.5733                 8.6371                 8.6852
 IR Inten    --      2.8367               114.3344               108.3273

 - Thermochemistry -
 -------------------
 Temperature   298.150 Kelvin.  Pressure   1.00000 Atm.
 Atom     1 has atomic number  7 and mass  14.00307

 Molecular mass:   243.07294 amu.
 Principal axes and moments of inertia in atomic units:
                           1         2         3
     Eigenvalues --  1695.354327218.719557770.42536
           X            0.99998   0.00424  -0.00559
           Y           -0.00424   0.99999   0.00051
           Z            0.00559  -0.00049   0.99998
 This molecule is an asymmetric top.
 Rotational symmetry number  1.
 Warning -- assumption of classical behavior for rotation
           may cause significant error
 Rotational temperatures (Kelvin)      0.05109     0.01200     0.01115
 Rotational constants (GHZ):           1.06452     0.25001     0.23226
 Zero-point vibrational energy     560828.6 (Joules/Mol)
                                  134.04126 (Kcal/Mol)
 Warning -- explicit consideration of  21 degrees of freedom as
           vibrations may cause significant error
 Vibrational temperatures:     18.85    43.17    65.67   104.70   136.60
          (Kelvin)            176.90   222.89   273.17   301.24   360.83
                              372.77   422.37   438.54   463.07   483.10
                              529.11   555.40   617.36   698.44   759.93
                              811.66   905.44   922.60   970.10   986.33
                             1063.62  1077.22  1080.04  1105.40  1120.02
                             1199.99  1225.89  1271.57  1277.34  1335.48
                             1441.23  1461.70  1462.65  1499.96  1512.06
                             1543.85  1600.40  1627.03  1660.19  1671.88
                             1723.67  1755.72  1782.32  1788.98  1821.72
                             1883.41  1894.05  1908.34  1954.24  1975.13
                             1982.58  1997.39  2027.01  2032.47  2042.50
                             2061.20  2082.95  2094.03  2153.76  2165.85
                             2217.20  2380.82  4423.22  4433.74  4450.11
                             4518.94  4543.39  4546.94  4769.28  4951.93
                             4979.32  5335.31  5349.05

 Zero-point correction=                           0.213608 (Hartree/Particle)
 Thermal correction to Energy=                    0.228954
 Thermal correction to Enthalpy=                  0.229898
 Thermal correction to Gibbs Free Energy=         0.168453
 Sum of electronic and zero-point Energies=           -906.456275
 Sum of electronic and thermal Energies=              -906.440930
 Sum of electronic and thermal Enthalpies=            -906.439985
 Sum of electronic and thermal Free Energies=         -906.501431

                     E (Thermal)             CV                S
                      KCal/Mol        Cal/Mol-Kelvin    Cal/Mol-Kelvin
 Total                  143.671             57.085            129.322
 Electronic               0.000              0.000              0.000
 Translational            0.889              2.981             42.366
 Rotational               0.889              2.981             32.919
 Vibrational            141.893             51.123             54.038
 Vibration     1          0.593              1.987              7.474
 Vibration     2          0.594              1.984              5.829
 Vibration     3          0.595              1.979              4.998
 Vibration     4          0.599              1.967              4.077
 Vibration     5          0.603              1.953              3.556
 Vibration     6          0.610              1.930              3.053
 Vibration     7          0.620              1.897              2.611
 Vibration     8          0.633              1.854              2.229
 Vibration     9          0.642              1.826              2.049
 Vibration    10          0.663              1.761              1.725
 Vibration    11          0.668              1.747              1.668
 Vibration    12          0.688              1.686              1.453
 Vibration    13          0.696              1.665              1.390
 Vibration    14          0.707              1.632              1.301
 Vibration    15          0.717              1.604              1.232
 Vibration    16          0.740              1.539              1.089
 Vibration    17          0.755              1.500              1.015
 Vibration    18          0.790              1.407              0.862
 Vibration    19          0.842              1.282              0.696
 Vibration    20          0.883              1.188              0.591
 Vibration    21          0.920              1.109              0.516

                           ! Non-Optimized Parameters !
 Normal termination of Gaussian 16 at Sun Jul 11 16:40:26 2021.

 ----------------------------------------------------------------------
 #p b3lyp/6-31G(d) scrf=(iefpcm,read,solvent=water) geom=allcheck guess
 =read
 ----------------------------------------------------------------------

 Structure from the checkpoint file:  "SET_328_BBB285_conf1.geo_300_300.chk"
 -----------------------------------------
 SET_328_BBB285_conf1.geo_300_300 geometry
 -----------------------------------------
 Charge = -1 Multiplicity = 1

 SCF Done:  E(RB3LYP) =  -906.669883631     A.U. after    1 cycles
 Normal termination of Gaussian 16 at Sun Jul 11 16:40:34 2021.

 -----------------------------
 #p B3LYP/6-31G* geom=allcheck
 -----------------------------

 Structure from the checkpoint file:  "SET_328_BBB285_conf1.geo_300_300.chk"
 -----------------------------------------
 SET_328_BBB285_conf1.geo_300_300 geometry
 -----------------------------------------
 Charge = -1 Multiplicity = 1

 SCF Done:  E(RB3LYP) =  -906.543104995     A.U. after   17 cycles
 Normal termination of Gaussian 16 at Sun Jul 11 16:41:16 2021.
 Gaussian 16:  ES64L-G16RevB.01 20-Dec-2017

 --------------------------------------------------------
 #p mp2/aug-cc-pVDZ scf=tight maxdisk=180GB geom=allcheck
 --------------------------------------------------------

 Structure from the checkpoint file:  "SET_328_BBB285_conf1.geo_300_300.chk"
 -----------------------------------------
 SET_328_BBB285_conf1.geo_300_300 geometry
 -----------------------------------------
 Charge = -1 Multiplicity = 1

                         Standard orientation:
 ---------------------------------------------------------------------
 Center     Atomic      Atomic             Coordinates (Angstroms)
 Number     Number       Type             X           Y           Z
 ---------------------------------------------------------------------
      1          7           0       -3.728866    2.102177   -0.180644
      2          1           0       -2.723518    2.276496   -0.137555
      3          6           0       -3.932385    0.800071   -0.133208
      4          8           0       -5.061760    0.220725   -0.166138
      5          6           0       -2.756569   -0.147395   -0.029994
      6          6           0       -2.801616   -1.554782    0.027554
      7          7           0       -1.561309   -2.035837    0.114802
      8          1           0       -3.659427   -2.207653    0.010987
      9          7           0       -1.467805    0.215613    0.026416
     10          7           0       -0.798948   -0.935239    0.115932
     11          6           0        0.660805   -1.017112    0.160218
     12          1           0        0.872672   -2.058305    0.400098
     13          8           0        1.216704   -0.697850   -1.105052
     14          6           0        1.917713    0.566248   -1.077488
     15          6           0        3.393649    0.316271   -1.376814
     16          8           0        3.980510   -0.653864   -0.503233
     17          1           0        3.652462   -1.525888   -0.786936
     18          1           0        3.949087    1.244703   -1.240698
     19          1           0        3.502265   -0.008700   -2.416469
     20          1           0        1.508482    1.197998   -1.872754
     21          6           0        1.622841    1.174600    0.311608
     22          8           0        2.724217    1.940802    0.751519
     23          1           0        2.476874    2.351930    1.598754
     24          1           0        0.717405    1.785486    0.238692
     25          6           0        1.300841   -0.058812    1.189069
     26          1           0        0.599487    0.175854    1.990043
     27          8           0        2.441974   -0.623866    1.790689
     28          1           0        3.157875   -0.621028    1.112344
 ---------------------------------------------------------------------

 SCF Done:  E(RHF) =  -901.540810730     A.U. after   16 cycles
 E2 =    -0.2820960512D+01 EUMP2 =    -0.90436177124241D+03

 The electronic state is 1-A.
 Alpha  occ. eigenvalues --  -20.52390 -20.51039 -20.50370 -20.48178 -20.31368
 Alpha  occ. eigenvalues --  -15.56397 -15.50550 -15.49747 -15.33221 -11.25232
 Alpha  occ. eigenvalues --  -11.22442 -11.22376 -11.21814 -11.21322 -11.15063
 Alpha  occ. eigenvalues --  -11.14313 -11.13783  -1.34759  -1.32370  -1.30738
 Alpha  occ. eigenvalues --   -1.29823  -1.27609  -1.14706  -1.07149  -1.02545
 Alpha  occ. eigenvalues --   -0.97339  -0.95429  -0.92161  -0.84748  -0.77094
 Alpha  occ. eigenvalues --   -0.73252  -0.72261  -0.69292  -0.65298  -0.64348
 Alpha  occ. eigenvalues --   -0.63093  -0.60918  -0.59175  -0.57455  -0.56779
 Alpha  occ. eigenvalues --   -0.55847  -0.53722  -0.52247  -0.51205  -0.49447
 Alpha  occ. eigenvalues --   -0.49332  -0.48308  -0.47291  -0.45177  -0.42981
 Alpha  occ. eigenvalues --   -0.42418  -0.40092  -0.39462  -0.38548  -0.37640
 Alpha  occ. eigenvalues --   -0.36719  -0.35487  -0.35176  -0.34131  -0.27783
 Alpha  occ. eigenvalues --   -0.24241  -0.23242  -0.21457  -0.15564
 Alpha virt. eigenvalues --    0.09445   0.10334   0.10850   0.12099   0.12657
 Alpha virt. eigenvalues --    0.13436   0.13645   0.14398   0.14680   0.16282
 Alpha virt. eigenvalues --    0.17493   0.18633   0.19124   0.20049   0.20576

 Mulliken charges:
               1
     1  N   -0.663812
     2  H   -0.036163
     3  C    0.863012
     4  O   -1.016550
     5  C    0.850581
     6  C    0.546404
     7  N   -0.431587
     8  H   -0.315910
     9  N   -0.965185
    10  N   -0.467359
    11  C    1.693951
    12  H   -0.357086
    13  O   -1.206535
    14  C    0.452562
    15  C    1.235829
    16  O   -0.817308
    17  H    0.207134
    18  H   -0.128597
    19  H   -0.097606
    20  H   -0.312123
    21  C    0.976422
    22  O   -0.872766
    23  H    0.130422
    24  H   -0.112229
    25  C    0.680926
    26  H   -0.232480
    27  O   -0.857249
    28  H    0.253302
 Sum of Mulliken charges =  -1.00000

 Dipole moment (field-independent basis, Debye):
    X=             18.5710    Y=             -3.1952    Z=             -0.3542  Tot=             18.8472
 Quadrupole moment (field-independent basis, Debye-Ang):
   XX=           -209.9850   YY=           -115.0404   ZZ=           -103.4773
   XY=             23.3096   XZ=            -11.4141   YZ=              4.8549

 Normal termination of Gaussian 16 at Sun Jul 11 17:36:20 2021.
