 Gaussian 16, Revision B.01,

 -----------------------------------------------------------
 #p b3lyp/6-31G(d) opt freq scrf=(iefpcm,read,solvent=water)
 -----------------------------------------------------------

 -----------------------------------------
 SET_328_BBB315_conf1.geo_180_090 geometry
 -----------------------------------------
 Symbolic Z-matrix:
 Charge =  1 Multiplicity = 1

 SCF Done:  E(RB3LYP) =  -514.273880097     A.U. after   13 cycles
 SCF Done:  E(RB3LYP) =  -514.305384891     A.U. after   11 cycles
 SCF Done:  E(RB3LYP) =  -514.315751612     A.U. after   11 cycles
 SCF Done:  E(RB3LYP) =  -514.316761746     A.U. after   10 cycles
 SCF Done:  E(RB3LYP) =  -514.317021566     A.U. after   10 cycles
 SCF Done:  E(RB3LYP) =  -514.317091499     A.U. after    9 cycles
 SCF Done:  E(RB3LYP) =  -514.317114040     A.U. after   10 cycles
 SCF Done:  E(RB3LYP) =  -514.317146876     A.U. after    9 cycles
 SCF Done:  E(RB3LYP) =  -514.317293790     A.U. after   10 cycles
 SCF Done:  E(RB3LYP) =  -514.317338277     A.U. after   11 cycles
 SCF Done:  E(RB3LYP) =  -514.317477765     A.U. after    9 cycles
 SCF Done:  E(RB3LYP) =  -514.317483413     A.U. after    8 cycles
 SCF Done:  E(RB3LYP) =  -514.317483739     A.U. after    6 cycles
 SCF Done:  E(RB3LYP) =  -514.317484001     A.U. after    6 cycles
 SCF Done:  E(RB3LYP) =  -514.317483811     A.U. after    7 cycles
 SCF Done:  E(RB3LYP) =  -514.317483779     A.U. after    6 cycles
 Optimization completed.
    -- Stationary point found.
 Normal termination of Gaussian 16 at Sun Jul 11 16:37:09 2021.

 --------------------------------------------------------------------
 #P Geom=AllCheck Guess=TCheck SCRF=Check GenChk RB3LYP/6-31G(d) Freq
 --------------------------------------------------------------------

 Structure from the checkpoint file:  "SET_328_BBB315_conf1.geo_180_090.chk"
 -----------------------------------------
 SET_328_BBB315_conf1.geo_180_090 geometry
 -----------------------------------------
 Charge =  1 Multiplicity = 1

 SCF Done:  E(RB3LYP) =  -514.317483779     A.U. after    1 cycles

  Exact polarizability: 227.048  -8.428 154.983  18.188   5.651  73.114
 Approx polarizability: 249.112  -6.609 188.625  22.859   8.506  84.514

                      1                      2                      3
                      A                      A                      A
 Frequencies --     66.1491                85.9289               135.7602
 Red. masses --      4.0644                 4.0216                 1.8787
 Frc consts  --      0.0105                 0.0175                 0.0204
 IR Inten    --     25.5550                20.8533                 8.5276

                      4                      5                      6
                      A                      A                      A
 Frequencies --    187.8258               239.2597               269.2025
 Red. masses --      4.1414                 4.1701                 3.0635
 Frc consts  --      0.0861                 0.1406                 0.1308
 IR Inten    --      3.1841                 3.7345                 7.3645

                      7                      8                      9
                      A                      A                      A
 Frequencies --    317.2272               333.5494               358.9833
 Red. masses --      2.8766                 1.1032                 4.2562
 Frc consts  --      0.1706                 0.0723                 0.3232
 IR Inten    --     15.8106                 0.6210                 7.4609

                     10                     11                     12
                      A                      A                      A
 Frequencies --    448.5214               483.4469               563.2238
 Red. masses --      3.1690                 3.7426                 5.5689
 Frc consts  --      0.3756                 0.5154                 1.0408
 IR Inten    --      8.9189                 4.0649                 1.6357

                     13                     14                     15
                      A                      A                      A
 Frequencies --    578.0591               629.0674               675.4075
 Red. masses --      3.4032                 6.4326                 3.0460
 Frc consts  --      0.6700                 1.4998                 0.8187
 IR Inten    --      0.1349                 0.9769                 3.8613

                     16                     17                     18
                      A                      A                      A
 Frequencies --    710.3595               743.6127               760.0081
 Red. masses --      1.5650                 3.6361                 1.6176
 Frc consts  --      0.4653                 1.1846                 0.5505
 IR Inten    --     24.5861                 1.0342                72.5985

                     19                     20                     21
                      A                      A                      A
 Frequencies --    767.2021               792.9188               847.4310
 Red. masses --      3.3209                 1.1935                 4.0595
 Frc consts  --      1.1517                 0.4421                 1.7176
 IR Inten    --     28.8117                12.4667                 1.2407

                     22                     23                     24
                      A                      A                      A
 Frequencies --    856.3349               923.7032               933.2883
 Red. masses --      1.4424                 4.5615                 2.0591
 Frc consts  --      0.6232                 2.2931                 1.0567
 IR Inten    --      1.4749                 9.5182                25.1908

                     25                     26                     27
                      A                      A                      A
 Frequencies --    942.7695               949.2162               989.1637
 Red. masses --      1.3092                 1.3953                 1.2552
 Frc consts  --      0.6856                 0.7407                 0.7236
 IR Inten    --      1.3182                28.3334                 0.0721

                     28                     29                     30
                      A                      A                      A
 Frequencies --   1005.2639              1024.7868              1046.6560
 Red. masses --      4.8013                 2.8803                 2.6284
 Frc consts  --      2.8587                 1.7822                 1.6965
 IR Inten    --     10.8998                23.4003                 7.3829

                     31                     32                     33
                      A                      A                      A
 Frequencies --   1101.8974              1150.6521              1154.5159
 Red. masses --      1.3257                 1.7396                 1.5623
 Frc consts  --      0.9484                 1.3570                 1.2269
 IR Inten    --      5.2883                39.4083                 5.5959

                     34                     35                     36
                      A                      A                      A
 Frequencies --   1169.5211              1205.2415              1271.8026
 Red. masses --      1.1797                 1.3520                 3.0182
 Frc consts  --      0.9507                 1.1571                 2.8763
 IR Inten    --     25.4865                 4.5559                42.0848

                     37                     38                     39
                      A                      A                      A
 Frequencies --   1300.5954              1309.5812              1339.6306
 Red. masses --      2.0192                 1.7693                 1.4277
 Frc consts  --      2.0124                 1.7878                 1.5096
 IR Inten    --     35.4011                49.9868                35.7238

                     40                     41                     42
                      A                      A                      A
 Frequencies --   1362.9282              1381.6170              1396.5118
 Red. masses --      1.1331                 3.4626                 2.3308
 Frc consts  --      1.2402                 3.8943                 2.6783
 IR Inten    --     11.1744               103.0840                10.1829

                     43                     44                     45
                      A                      A                      A
 Frequencies --   1403.1356              1431.3742              1495.0901
 Red. masses --      2.7272                 1.4790                 1.1477
 Frc consts  --      3.1635                 1.7854                 1.5115
 IR Inten    --     11.3363                11.2101                 2.5107

                     46                     47                     48
                      A                      A                      A
 Frequencies --   1501.5344              1525.8136              1530.8439
 Red. masses --      2.4726                 1.1060                 1.1465
 Frc consts  --      3.2846                 1.5171                 1.5831
 IR Inten    --      0.6645                92.8128               120.1000

                     49                     50                     51
                      A                      A                      A
 Frequencies --   1550.2007              1580.9047              1593.1295
 Red. masses --      4.9188                 4.9669                 5.7137
 Frc consts  --      6.9644                 7.3138                 8.5442
 IR Inten    --    110.8574                 1.1490                23.7754

                     52                     53                     54
                      A                      A                      A
 Frequencies --   1640.6987              1659.1990              1694.1104
 Red. masses --      1.0389                 1.0411                 6.0528
 Frc consts  --      1.6477                 1.6886                10.2351
 IR Inten    --     75.7271                82.7890                28.8525

                     55                     56                     57
                      A                      A                      A
 Frequencies --   3060.0987              3124.4661              3132.9785
 Red. masses --      1.0663                 1.0981                 1.0599
 Frc consts  --      5.8833                 6.3157                 6.1293
 IR Inten    --     37.7837                20.3478                14.6331

                     58                     59                     60
                      A                      A                      A
 Frequencies --   3194.0326              3228.3104              3243.3950
 Red. masses --      1.1102                 1.0878                 1.0939
 Frc consts  --      6.6730                 6.6795                 6.7798
 IR Inten    --     13.9063                 5.7958                13.7167

                     61                     62                     63
                      A                      A                      A
 Frequencies --   3250.3948              3267.3975              3310.6273
 Red. masses --      1.0916                 1.0978                 1.0987
 Frc consts  --      6.7950                 6.9053                 7.0947
 IR Inten    --      8.1901                 9.0318                 0.1014

                     64                     65                     66
                      A                      A                      A
 Frequencies --   3379.9712              3445.7143              3457.7593
 Red. masses --      1.0335                 1.0933                 1.0946
 Frc consts  --      6.9562                 7.6483                 7.7109
 IR Inten    --    143.3536               234.6444               232.5303

 - Thermochemistry -
 -------------------
 Temperature   298.150 Kelvin.  Pressure   1.00000 Atm.
 Atom     1 has atomic number  7 and mass  14.00307

 Molecular mass:   162.10312 amu.
 Principal axes and moments of inertia in atomic units:
                           1         2         3
     Eigenvalues --   571.879194018.538584429.48152
           X            1.00000   0.00065  -0.00093
           Y           -0.00066   0.99999  -0.00381
           Z            0.00093   0.00381   0.99999
 This molecule is an asymmetric top.
 Rotational symmetry number  1.
 Warning -- assumption of classical behavior for rotation
           may cause significant error
 Rotational temperatures (Kelvin)      0.15145     0.02155     0.01955
 Rotational constants (GHZ):           3.15581     0.44910     0.40744
 Zero-point vibrational energy     547351.4 (Joules/Mol)
                                  130.82012 (Kcal/Mol)
 Warning -- explicit consideration of  13 degrees of freedom as
           vibrations may cause significant error
 Vibrational temperatures:     95.17   123.63   195.33   270.24   344.24
          (Kelvin)            387.32   456.42   479.90   516.50   645.32
                              695.57   810.35   831.70   905.09   971.76
                             1022.05  1069.89  1093.48  1103.83  1140.83
                             1219.26  1232.07  1329.00  1342.79  1356.44
                             1365.71  1423.19  1446.35  1474.44  1505.90
                             1585.38  1655.53  1661.09  1682.68  1734.07
                             1829.84  1871.27  1884.20  1927.43  1960.95
                             1987.84  2009.27  2018.80  2059.43  2151.10
                             2160.37  2195.31  2202.54  2230.39  2274.57
                             2292.16  2360.60  2387.22  2437.45  4402.80
                             4495.41  4507.66  4595.50  4644.82  4666.52
                             4676.59  4701.06  4763.25  4863.02  4957.61
                             4974.94

 Zero-point correction=                           0.208475 (Hartree/Particle)
 Thermal correction to Energy=                    0.218475
 Thermal correction to Enthalpy=                  0.219419
 Thermal correction to Gibbs Free Energy=         0.172720
 Sum of electronic and zero-point Energies=           -514.109009
 Sum of electronic and thermal Energies=              -514.099009
 Sum of electronic and thermal Enthalpies=            -514.098065
 Sum of electronic and thermal Free Energies=         -514.144764

                     E (Thermal)             CV                S
                      KCal/Mol        Cal/Mol-Kelvin    Cal/Mol-Kelvin
 Total                  137.095             39.588             98.286
 Electronic               0.000              0.000              0.000
 Translational            0.889              2.981             41.158
 Rotational               0.889              2.981             30.699
 Vibrational            135.318             33.627             26.429
 Vibration     1          0.598              1.970              4.265
 Vibration     2          0.601              1.959              3.751
 Vibration     3          0.614              1.918              2.863
 Vibration     4          0.633              1.857              2.249
 Vibration     5          0.657              1.780              1.808
 Vibration     6          0.674              1.730              1.601
 Vibration     7          0.704              1.641              1.324
 Vibration     8          0.715              1.609              1.243
 Vibration     9          0.734              1.557              1.127
 Vibration    10          0.808              1.364              0.800
 Vibration    11          0.840              1.287              0.701
 Vibration    12          0.919              1.111              0.517
 Vibration    13          0.935              1.079              0.489

 Optimization completed.
    -- Stationary point found.
 Normal termination of Gaussian 16 at Sun Jul 11 16:40:35 2021.

 ----------------------------------------------------------------------
 #p b3lyp/6-31G(d) scrf=(iefpcm,read,solvent=water) geom=allcheck guess
 =read
 ----------------------------------------------------------------------

 Structure from the checkpoint file:  "SET_328_BBB315_conf1.geo_180_090.chk"
 -----------------------------------------
 SET_328_BBB315_conf1.geo_180_090 geometry
 -----------------------------------------
 Charge =  1 Multiplicity = 1

 SCF Done:  E(RB3LYP) =  -514.317483779     A.U. after    1 cycles
 Normal termination of Gaussian 16 at Sun Jul 11 16:40:40 2021.

 -----------------------------
 #p B3LYP/6-31G* geom=allcheck
 -----------------------------

 Structure from the checkpoint file:  "SET_328_BBB315_conf1.geo_180_090.chk"
 -----------------------------------------
 SET_328_BBB315_conf1.geo_180_090 geometry
 -----------------------------------------
 Charge =  1 Multiplicity = 1

 SCF Done:  E(RB3LYP) =  -514.201534846     A.U. after   14 cycles
 Normal termination of Gaussian 16 at Sun Jul 11 16:40:59 2021.
 Gaussian 16:  ES64L-G16RevB.01 20-Dec-2017

 --------------------------------------------------------
 #p mp2/aug-cc-pVDZ scf=tight maxdisk=180GB geom=allcheck
 --------------------------------------------------------

 Structure from the checkpoint file:  "SET_328_BBB315_conf1.geo_180_090.chk"
 -----------------------------------------
 SET_328_BBB315_conf1.geo_180_090 geometry
 -----------------------------------------
 Charge =  1 Multiplicity = 1

                         Standard orientation:
 ---------------------------------------------------------------------
 Center     Atomic      Atomic             Coordinates (Angstroms)
 Number     Number       Type             X           Y           Z
 ---------------------------------------------------------------------
      1          7           0       -4.601274   -0.253432    0.301837
      2          1           0       -4.845746   -0.746072   -0.573057
      3          1           0       -4.951623    0.713983    0.223455
      4          6           0       -3.121270   -0.285507    0.555591
      5          1           0       -2.837040   -1.333916    0.638109
      6          1           0       -2.955152    0.205256    1.515034
      7          6           0       -2.361132    0.408938   -0.574639
      8          1           0       -2.652512    1.460902   -0.626034
      9          1           0       -2.634215   -0.056704   -1.528959
     10          6           0       -0.878823    0.301144   -0.370684
     11          6           0        0.011091    1.330753   -0.147589
     12          1           0       -0.117669    2.398320   -0.074202
     13          7           0        1.247455    0.732947   -0.018034
     14          6           0        2.490043    1.272537    0.208397
     15          1           0        2.537252    2.348388    0.306863
     16          6           0        3.569819    0.439596    0.294393
     17          1           0        4.548516    0.865144    0.473543
     18          6           0        3.407388   -0.966078    0.150182
     19          1           0        4.274572   -1.611830    0.220612
     20          6           0        2.164370   -1.504761   -0.077306
     21          1           0        2.010007   -2.570655   -0.192011
     22          6           0        1.043248   -0.648088   -0.166619
     23          7           0       -0.246736   -0.915811   -0.381266
     24          1           0       -5.120905   -0.709950    1.068537
 ---------------------------------------------------------------------

 SCF Done:  E(RHF) =  -510.991427010     A.U. after   16 cycles
 E2 =    -0.1751563035D+01 EUMP2 =    -0.51274299004564D+03

 The electronic state is 1-A.
 Alpha  occ. eigenvalues --  -15.89184 -15.75646 -15.65602 -11.46583 -11.41652
 Alpha  occ. eigenvalues --  -11.40013 -11.39829 -11.38631 -11.37461 -11.35554
 Alpha  occ. eigenvalues --  -11.34548 -11.34467  -1.49929  -1.46670  -1.31926
 Alpha  occ. eigenvalues --   -1.22386  -1.21363  -1.12676  -1.10886  -1.04828
 Alpha  occ. eigenvalues --   -0.96934  -0.95794  -0.94838  -0.94061  -0.89582
 Alpha  occ. eigenvalues --   -0.83846  -0.81900  -0.80215  -0.76690  -0.76104
 Alpha  occ. eigenvalues --   -0.73503  -0.72910  -0.71426  -0.70021  -0.67692
 Alpha  occ. eigenvalues --   -0.67124  -0.63780  -0.62238  -0.56986  -0.54495
 Alpha  occ. eigenvalues --   -0.53629  -0.43053  -0.39119
 Alpha virt. eigenvalues --   -0.10808  -0.07155  -0.07088  -0.05556  -0.03821
 Alpha virt. eigenvalues --   -0.03361  -0.02969  -0.02831  -0.01835  -0.01533
 Alpha virt. eigenvalues --   -0.01431  -0.01016  -0.00460   0.00657   0.01383

 Mulliken charges:
               1
     1  N   -0.566166
     2  H    0.246232
     3  H    0.243099
     4  C    1.058777
     5  H   -0.095373
     6  H   -0.128849
     7  C    0.339218
     8  H   -0.090826
     9  H    0.006788
    10  C    0.306625
    11  C    1.035817
    12  H   -0.470588
    13  N   -0.747231
    14  C    0.668879
    15  H   -0.488938
    16  C    0.790233
    17  H   -0.430318
    18  C   -0.051469
    19  H   -0.410294
    20  C    1.449507
    21  H   -0.477229
    22  C   -0.324637
    23  N   -1.047527
    24  H    0.184268
 Sum of Mulliken charges =   1.00000

 Dipole moment (field-independent basis, Debye):
    X=            -14.8510    Y=              1.4209    Z=              1.9355  Tot=             15.0438
 Quadrupole moment (field-independent basis, Debye-Ang):
   XX=             37.7319   YY=            -60.2787   ZZ=            -71.2175
   XY=              3.6299   XZ=             -4.2705   YZ=             -0.4311

 Normal termination of Gaussian 16 at Sun Jul 11 16:46:18 2021.
