 Gaussian 16, Revision B.01,

 -----------------------------------------------------------
 #p b3lyp/6-31G(d) opt freq scrf=(iefpcm,read,solvent=water)
 -----------------------------------------------------------

 -----------------------------------------
 SET_328_BBB299_conf1.geo_165_180 geometry
 -----------------------------------------
 Symbolic Z-matrix:
 Charge = -1 Multiplicity = 1

 SCF Done:  E(RB3LYP) =  -495.541512089     A.U. after   13 cycles
 SCF Done:  E(RB3LYP) =  -495.570978282     A.U. after   12 cycles
 SCF Done:  E(RB3LYP) =  -495.577470154     A.U. after   11 cycles
 SCF Done:  E(RB3LYP) =  -495.567878035     A.U. after   13 cycles
 SCF Done:  E(RB3LYP) =  -495.578076203     A.U. after   11 cycles
 SCF Done:  E(RB3LYP) =  -495.578120698     A.U. after   10 cycles
 SCF Done:  E(RB3LYP) =  -495.578129826     A.U. after    9 cycles
 SCF Done:  E(RB3LYP) =  -495.578128581     A.U. after    9 cycles
 SCF Done:  E(RB3LYP) =  -495.578119599     A.U. after   10 cycles
 SCF Done:  E(RB3LYP) =  -495.578128978     A.U. after   10 cycles
 SCF Done:  E(RB3LYP) =  -495.578143541     A.U. after    9 cycles
 SCF Done:  E(RB3LYP) =  -495.578146497     A.U. after   10 cycles
 SCF Done:  E(RB3LYP) =  -495.578142627     A.U. after    9 cycles
 SCF Done:  E(RB3LYP) =  -495.578139063     A.U. after   10 cycles
 SCF Done:  E(RB3LYP) =  -495.578143621     A.U. after    9 cycles
 SCF Done:  E(RB3LYP) =  -495.578143873     A.U. after    8 cycles
 Optimization completed.
    -- Stationary point found.
 Normal termination of Gaussian 16 at Sun Jul 11 16:19:03 2021.

 --------------------------------------------------------------------
 #P Geom=AllCheck Guess=TCheck SCRF=Check GenChk RB3LYP/6-31G(d) Freq
 --------------------------------------------------------------------

 Structure from the checkpoint file:  "SET_328_BBB299_conf1.geo_165_180.chk"
 -----------------------------------------
 SET_328_BBB299_conf1.geo_165_180 geometry
 -----------------------------------------
 Charge = -1 Multiplicity = 1

 SCF Done:  E(RB3LYP) =  -495.578143873     A.U. after    1 cycles

  Exact polarizability: 141.717   2.552 140.058   0.001  -0.001  38.608
 Approx polarizability: 161.635   6.161 174.401   0.002  -0.008  46.372

                      1                      2                      3
                      A                      A                      A
 Frequencies --     25.9244               133.6340               249.4595
 Red. masses --     10.8947                 5.1699                 3.7425
 Frc consts  --      0.0043                 0.0544                 0.1372
 IR Inten    --      1.1693                 1.4610                 3.9609

                      4                      5                      6
                      A                      A                      A
 Frequencies --    256.1560               353.7196               358.7869
 Red. masses --      8.1348                 1.1957                 7.4310
 Frc consts  --      0.3145                 0.0881                 0.5636
 IR Inten    --      1.4970               169.5379                16.8517

                      7                      8                      9
                      A                      A                      A
 Frequencies --    390.6105               451.1333               527.0018
 Red. masses --      8.6259                 3.7272                 5.0639
 Frc consts  --      0.7754                 0.4469                 0.8286
 IR Inten    --      3.0970                 2.7561                18.3041

                     10                     11                     12
                      A                      A                      A
 Frequencies --    550.3059               572.2107               668.0768
 Red. masses --      3.6104                 7.9510                 6.8917
 Frc consts  --      0.6442                 1.5339                 1.8123
 IR Inten    --      7.5720                13.0691                30.2150

                     13                     14                     15
                      A                      A                      A
 Frequencies --    697.2081               770.1094               802.9030
 Red. masses --      4.1922                 1.5416                 8.5688
 Frc consts  --      1.2006                 0.5387                 3.2546
 IR Inten    --     17.8650                86.6220                79.0762

                     16                     17                     18
                      A                      A                      A
 Frequencies --    803.8511               860.7929               864.4356
 Red. masses --      3.3272                 6.8856                 1.5388
 Frc consts  --      1.2667                 3.0060                 0.6775
 IR Inten    --      0.0913                83.3471                 2.0727

                     19                     20                     21
                      A                      A                      A
 Frequencies --    967.1791               995.4540              1059.7401
 Red. masses --      1.3170                 1.2657                 2.1173
 Frc consts  --      0.7258                 0.7390                 1.4010
 IR Inten    --      1.1384                 0.8636                11.0457

                     22                     23                     24
                      A                      A                      A
 Frequencies --   1095.7712              1151.9916              1173.7669
 Red. masses --      2.5587                 2.0856                 1.1932
 Frc consts  --      1.8102                 1.6308                 0.9686
 IR Inten    --     76.2795               100.0302                14.4110

                     25                     26                     27
                      A                      A                      A
 Frequencies --   1204.3294              1279.7227              1307.7095
 Red. masses --      1.3022                 3.1034                 1.7642
 Frc consts  --      1.1128                 2.9944                 1.7775
 IR Inten    --     86.1466               104.9164               146.6626

                     28                     29                     30
                      A                      A                      A
 Frequencies --   1370.2810              1390.4370              1484.4740
 Red. masses --      4.4033                 8.4584                 2.4472
 Frc consts  --      4.8713                 9.6348                 3.1774
 IR Inten    --    208.6719               476.9168                67.4892

                     31                     32                     33
                      A                      A                      A
 Frequencies --   1527.1558              1630.0064              1651.3820
 Red. masses --      2.6047                 6.4321                 6.2600
 Frc consts  --      3.5791                10.0688                10.0583
 IR Inten    --     34.2871                87.3808                65.4805

                     34                     35                     36
                      A                      A                      A
 Frequencies --   1670.4189              3184.0444              3200.9294
 Red. masses --      9.8932                 1.0884                 1.0885
 Frc consts  --     16.2644                 6.5013                 6.5710
 IR Inten    --    805.5077                27.5310                25.8056

                     37                     38                     39
                      A                      A                      A
 Frequencies --   3215.8529              3234.0020              3735.1839
 Red. masses --      1.0949                 1.0917                 1.0662
 Frc consts  --      6.6717                 6.7271                 8.7642
 IR Inten    --     41.3941                17.6595               141.4143

 - Thermochemistry -
 -------------------
 Temperature   298.150 Kelvin.  Pressure   1.00000 Atm.
 Atom     1 has atomic number  8 and mass  15.99491

 Molecular mass:   137.02387 amu.
 Principal axes and moments of inertia in atomic units:
                           1         2         3
     Eigenvalues --   784.481511477.329632261.81082
           X            1.00000   0.00249   0.00000
           Y           -0.00249   1.00000   0.00002
           Z           -0.00000  -0.00002   1.00000
 This molecule is an asymmetric top.
 Rotational symmetry number  1.
 Warning -- assumption of classical behavior for rotation
           may cause significant error
 Rotational temperatures (Kelvin)      0.11041     0.05863     0.03829
 Rotational constants (GHZ):           2.30055     1.22162     0.79792
 Zero-point vibrational energy     280321.8 (Joules/Mol)
                                   66.99853 (Kcal/Mol)
 Warning -- explicit consideration of  11 degrees of freedom as
           vibrations may cause significant error
 Vibrational temperatures:     37.30   192.27   358.92   368.55   508.92
          (Kelvin)            516.21   562.00   649.08   758.24   791.77
                              823.28   961.21  1003.13  1108.02  1155.20
                             1156.56  1238.49  1243.73  1391.56  1432.24
                             1524.73  1576.57  1657.46  1688.79  1732.76
                             1841.24  1881.50  1971.53  2000.53  2135.83
                             2197.24  2345.22  2375.97  2403.36  4581.13
                             4605.42  4626.90  4653.01  5374.10

 Zero-point correction=                           0.106769 (Hartree/Particle)
 Thermal correction to Energy=                    0.114838
 Thermal correction to Enthalpy=                  0.115782
 Thermal correction to Gibbs Free Energy=         0.072839
 Sum of electronic and zero-point Energies=           -495.471375
 Sum of electronic and thermal Energies=              -495.463306
 Sum of electronic and thermal Enthalpies=            -495.462361
 Sum of electronic and thermal Free Energies=         -495.505305

                     E (Thermal)             CV                S
                      KCal/Mol        Cal/Mol-Kelvin    Cal/Mol-Kelvin
 Total                   72.062             30.468             90.382
 Electronic               0.000              0.000              0.000
 Translational            0.889              2.981             40.657
 Rotational               0.889              2.981             29.351
 Vibrational             70.285             24.506             20.374
 Vibration     1          0.593              1.985              6.119
 Vibration     2          0.613              1.920              2.893
 Vibration     3          0.662              1.764              1.734
 Vibration     4          0.666              1.752              1.688
 Vibration     5          0.730              1.568              1.150
 Vibration     6          0.734              1.557              1.127
 Vibration     7          0.758              1.490              0.998
 Vibration     8          0.810              1.358              0.792
 Vibration     9          0.882              1.190              0.594
 Vibration    10          0.906              1.139              0.544
 Vibration    11          0.928              1.091              0.500

 Optimization completed.
    -- Stationary point found.
 Normal termination of Gaussian 16 at Sun Jul 11 16:21:09 2021.

 ----------------------------------------------------------------------
 #p b3lyp/6-31G(d) scrf=(iefpcm,read,solvent=water) geom=allcheck guess
 =read
 ----------------------------------------------------------------------

 Structure from the checkpoint file:  "SET_328_BBB299_conf1.geo_165_180.chk"
 -----------------------------------------
 SET_328_BBB299_conf1.geo_165_180 geometry
 -----------------------------------------
 Charge = -1 Multiplicity = 1

 SCF Done:  E(RB3LYP) =  -495.578143873     A.U. after    1 cycles
 Normal termination of Gaussian 16 at Sun Jul 11 16:21:14 2021.

 -----------------------------
 #p B3LYP/6-31G* geom=allcheck
 -----------------------------

 Structure from the checkpoint file:  "SET_328_BBB299_conf1.geo_165_180.chk"
 -----------------------------------------
 SET_328_BBB299_conf1.geo_165_180 geometry
 -----------------------------------------
 Charge = -1 Multiplicity = 1

 SCF Done:  E(RB3LYP) =  -495.454698342     A.U. after   16 cycles
 Normal termination of Gaussian 16 at Sun Jul 11 16:21:31 2021.
 Gaussian 16:  ES64L-G16RevB.01 20-Dec-2017

 --------------------------------------------------------
 #p mp2/aug-cc-pVDZ scf=tight maxdisk=180GB geom=allcheck
 --------------------------------------------------------

 Structure from the checkpoint file:  "SET_328_BBB299_conf1.geo_165_180.chk"
 -----------------------------------------
 SET_328_BBB299_conf1.geo_165_180 geometry
 -----------------------------------------
 Charge = -1 Multiplicity = 1

                         Standard orientation:
 ---------------------------------------------------------------------
 Center     Atomic      Atomic             Coordinates (Angstroms)
 Number     Number       Type             X           Y           Z
 ---------------------------------------------------------------------
      1          8           0        2.317730   -1.448181    0.001037
      2          6           0        1.814543   -0.286911   -0.000085
      3          8           0        2.466758    0.791857   -0.001152
      4          6           0        0.281180   -0.222641   -0.000017
      5          6           0       -0.490594    0.962570    0.000143
      6          8           0        0.111611    2.186705    0.000469
      7          1           0       -0.584213    2.865352    0.000521
      8          6           0       -1.893383    0.888966    0.000159
      9          1           0       -2.464964    1.812838    0.000348
     10          6           0       -2.549583   -0.337316   -0.000122
     11          1           0       -3.634896   -0.363946   -0.000106
     12          6           0       -1.806772   -1.519994   -0.000320
     13          1           0       -2.302826   -2.485102   -0.000532
     14          6           0       -0.417208   -1.440333   -0.000220
     15          1           0        0.189002   -2.338240   -0.000299
 ---------------------------------------------------------------------

 SCF Done:  E(RHF) =  -492.673472040     A.U. after   16 cycles
 E2 =    -0.1541708824D+01 EUMP2 =    -0.49421518086386D+03

 The electronic state is 1-A.
 Alpha  occ. eigenvalues --  -20.47036 -20.30710 -20.30547 -11.18684 -11.15942
 Alpha  occ. eigenvalues --  -11.13329 -11.12023 -11.11205 -11.10941 -11.09876
 Alpha  occ. eigenvalues --   -1.27843  -1.17636  -1.07057  -1.02127  -0.89496
 Alpha  occ. eigenvalues --   -0.87967  -0.71978  -0.70670  -0.60534  -0.59156
 Alpha  occ. eigenvalues --   -0.53358  -0.51370  -0.47052  -0.46306  -0.45981
 Alpha  occ. eigenvalues --   -0.43118  -0.40289  -0.38860  -0.37303  -0.36784
 Alpha  occ. eigenvalues --   -0.34581  -0.22070  -0.20981  -0.20896  -0.19305
 Alpha  occ. eigenvalues --   -0.18622
 Alpha virt. eigenvalues --    0.10751   0.11517   0.12621   0.14807   0.15999
 Alpha virt. eigenvalues --    0.20797   0.21134   0.21400   0.21771   0.22433
 Alpha virt. eigenvalues --    0.22555   0.22796   0.23292   0.24138   0.24652

 Mulliken charges:
               1
     1  O   -0.987003
     2  C    0.862873
     3  O   -0.941813
     4  C    0.589996
     5  C    0.969228
     6  O   -0.933392
     7  H    0.176195
     8  C    0.705276
     9  H   -0.675156
    10  C    0.250507
    11  H   -0.456518
    12  C    0.246389
    13  H   -0.459376
    14  C    0.289073
    15  H   -0.636278
 Sum of Mulliken charges =  -1.00000

 Dipole moment (field-independent basis, Debye):
    X=            -11.3260    Y=              1.9277    Z=              0.0002  Tot=             11.4889
 Quadrupole moment (field-independent basis, Debye-Ang):
   XX=            -92.0019   YY=            -64.0172   ZZ=            -63.4455
   XY=             -0.8421   XZ=              0.0003   YZ=              0.0106

 Normal termination of Gaussian 16 at Sun Jul 11 16:23:29 2021.
