 Gaussian 16, Revision B.01,

 -----------------------------------------------------------
 #p b3lyp/6-31G(d) opt freq scrf=(iefpcm,read,solvent=water)
 -----------------------------------------------------------

 ---------------------------------------
 SET_328_BBB2_conf1.geo_240_060 geometry
 ---------------------------------------
 Symbolic Z-matrix:
 Charge =  1 Multiplicity = 1

 SCF Done:  E(RB3LYP) =  -1633.63013794     A.U. after   13 cycles
 SCF Done:  E(RB3LYP) =  -1633.65985789     A.U. after   11 cycles
 SCF Done:  E(RB3LYP) =  -1633.67110380     A.U. after   11 cycles
 SCF Done:  E(RB3LYP) =  -1633.67268064     A.U. after   10 cycles
 SCF Done:  E(RB3LYP) =  -1633.67281093     A.U. after    9 cycles
 SCF Done:  E(RB3LYP) =  -1633.67280691     A.U. after    9 cycles
 SCF Done:  E(RB3LYP) =  -1633.67283425     A.U. after    8 cycles
 SCF Done:  E(RB3LYP) =  -1633.67284732     A.U. after    8 cycles
 SCF Done:  E(RB3LYP) =  -1633.67286856     A.U. after    9 cycles
 SCF Done:  E(RB3LYP) =  -1633.67286233     A.U. after    9 cycles
 SCF Done:  E(RB3LYP) =  -1633.67287318     A.U. after    8 cycles
 SCF Done:  E(RB3LYP) =  -1633.67286430     A.U. after    8 cycles
 SCF Done:  E(RB3LYP) =  -1633.67287041     A.U. after    8 cycles
 SCF Done:  E(RB3LYP) =  -1633.67286975     A.U. after    7 cycles
 SCF Done:  E(RB3LYP) =  -1633.67287004     A.U. after    6 cycles
 SCF Done:  E(RB3LYP) =  -1633.67287022     A.U. after    5 cycles
 Optimization completed on the basis of negligible forces.
    -- Stationary point found.
 Normal termination of Gaussian 16 at Sun Jul 11 16:20:03 2021.

 --------------------------------------------------------------------
 #P Geom=AllCheck Guess=TCheck SCRF=Check GenChk RB3LYP/6-31G(d) Freq
 --------------------------------------------------------------------

 Structure from the checkpoint file:  "SET_328_BBB2_conf1.geo_240_060.chk"
 ---------------------------------------
 SET_328_BBB2_conf1.geo_240_060 geometry
 ---------------------------------------
 Charge =  1 Multiplicity = 1

 SCF Done:  E(RB3LYP) =  -1633.67287022     A.U. after    1 cycles

  Exact polarizability: 334.432   1.148 241.934 -26.129  16.804 223.019
 Approx polarizability: 354.825   2.392 270.398 -31.258  24.994 261.825

                      1                      2                      3
                      A                      A                      A
 Frequencies --     13.1838                35.5480                42.3362
 Red. masses --      6.8031                 4.6453                 6.6944
 Frc consts  --      0.0007                 0.0035                 0.0071
 IR Inten    --      0.3860                 5.1428                 0.8006

                      4                      5                      6
                      A                      A                      A
 Frequencies --     78.8325                84.4770               121.0867
 Red. masses --      3.3745                 2.9129                 4.1219
 Frc consts  --      0.0124                 0.0122                 0.0356
 IR Inten    --      1.8168                 1.8694                 0.9635

                      7                      8                      9
                      A                      A                      A
 Frequencies --    129.6689               166.6840               195.4397
 Red. masses --      3.7845                 2.1329                 8.8426
 Frc consts  --      0.0375                 0.0349                 0.1990
 IR Inten    --      2.2548                 1.4543                 1.1021

                     10                     11                     12
                      A                      A                      A
 Frequencies --    199.4057               208.1858               225.2722
 Red. masses --      3.5686                 4.0010                 2.8146
 Frc consts  --      0.0836                 0.1022                 0.0842
 IR Inten    --      0.4640                 1.0852                 4.4173

                     13                     14                     15
                      A                      A                      A
 Frequencies --    237.6808               297.5821               307.8888
 Red. masses --      2.6951                 3.0544                 3.3821
 Frc consts  --      0.0897                 0.1594                 0.1889
 IR Inten    --      0.4582                 2.4083                12.3318

                     16                     17                     18
                      A                      A                      A
 Frequencies --    336.2032               367.7017               407.7091
 Red. masses --      4.2194                 5.2648                 3.7766
 Frc consts  --      0.2810                 0.4194                 0.3699
 IR Inten    --      5.0954                 2.9008                 3.8664

                     19                     20                     21
                      A                      A                      A
 Frequencies --    429.6663               443.3959               448.7184
 Red. masses --      4.2693                 3.9731                 4.9198
 Frc consts  --      0.4644                 0.4602                 0.5836
 IR Inten    --      0.7668                 2.1601                 0.4630

                     22                     23                     24
                      A                      A                      A
 Frequencies --    459.2500               472.6135               477.1211
 Red. masses --      3.1616                 4.0767                 5.4133
 Frc consts  --      0.3929                 0.5365                 0.7261
 IR Inten    --      7.2741                 4.6373                18.5356

                     25                     26                     27
                      A                      A                      A
 Frequencies --    522.3440               554.4117               598.8179
 Red. masses --      4.7773                 3.0231                 4.6372
 Frc consts  --      0.7680                 0.5475                 0.9797
 IR Inten    --      6.5256                11.7921                 9.0449

                     28                     29                     30
                      A                      A                      A
 Frequencies --    629.4751               640.2483               685.3539
 Red. masses --      4.2650                 3.4455                 6.7337
 Frc consts  --      0.9957                 0.8321                 1.8635
 IR Inten    --     10.1885                 3.3689                18.2988

                     31                     32                     33
                      A                      A                      A
 Frequencies --    696.9189               714.5129               736.8470
 Red. masses --      4.5772                 3.5675                 3.9449
 Frc consts  --      1.3098                 1.0731                 1.2619
 IR Inten    --      5.0901                 8.6033                30.2550

                     34                     35                     36
                      A                      A                      A
 Frequencies --    780.0732               791.5564               811.6419
 Red. masses --      1.7080                 2.3949                 2.7938
 Frc consts  --      0.6124                 0.8841                 1.0844
 IR Inten    --     27.8650                 8.0418                23.5856

                     37                     38                     39
                      A                      A                      A
 Frequencies --    833.5360               841.8935               879.5350
 Red. masses --      1.4868                 1.5496                 1.9541
 Frc consts  --      0.6086                 0.6471                 0.8906
 IR Inten    --      6.6380                40.8129                 7.9510

                     40                     41                     42
                      A                      A                      A
 Frequencies --    888.4600               902.2439               907.0404
 Red. masses --      1.5512                 1.9690                 1.6080
 Frc consts  --      0.7214                 0.9444                 0.7794
 IR Inten    --     42.5280                13.3499                14.1424

                     43                     44                     45
                      A                      A                      A
 Frequencies --    943.9837               965.4061               969.0870
 Red. masses --      2.1960                 1.7935                 1.7588
 Frc consts  --      1.1530                 0.9848                 0.9732
 IR Inten    --      2.3113                15.2759                16.8124

                     46                     47                     48
                      A                      A                      A
 Frequencies --    977.5062              1007.2204              1023.5858
 Red. masses --      1.3862                 1.2719                 3.5407
 Frc consts  --      0.7804                 0.7602                 2.1857
 IR Inten    --      6.3169                 0.2437                35.4664

                     49                     50                     51
                      A                      A                      A
 Frequencies --   1034.9397              1036.4028              1074.6561
 Red. masses --      3.5074                 3.2430                 2.3017
 Frc consts  --      2.2134                 2.0523                 1.5662
 IR Inten    --     51.8406                14.0408                 5.7968

                     52                     53                     54
                      A                      A                      A
 Frequencies --   1078.8767              1101.3914              1139.6106
 Red. masses --      2.4774                 1.8847                 2.0768
 Frc consts  --      1.6990                 1.3470                 1.5892
 IR Inten    --      5.1715                 9.1318                32.7571

                     55                     56                     57
                      A                      A                      A
 Frequencies --   1145.9142              1151.8512              1165.5111
 Red. masses --      2.1624                 1.4100                 1.4729
 Frc consts  --      1.6730                 1.1022                 1.1788
 IR Inten    --     38.7207                13.6143                19.8744

                     58                     59                     60
                      A                      A                      A
 Frequencies --   1175.8087              1198.9257              1201.3658
 Red. masses --      1.3640                 1.1481                 1.8282
 Frc consts  --      1.1111                 0.9723                 1.5546
 IR Inten    --      7.8033                 0.5013                 5.3075

                     61                     62                     63
                      A                      A                      A
 Frequencies --   1224.9381              1227.6697              1243.8798
 Red. masses --      2.1874                 2.1758                 1.6131
 Frc consts  --      1.9337                 1.9321                 1.4705
 IR Inten    --     14.3041                11.0426                12.3613

                     64                     65                     66
                      A                      A                      A
 Frequencies --   1262.4073              1275.2172              1307.0391
 Red. masses --      1.4544                 1.4030                 2.8190
 Frc consts  --      1.3657                 1.3442                 2.8374
 IR Inten    --      1.2747                 9.6020                 6.0383

                     67                     68                     69
                      A                      A                      A
 Frequencies --   1324.8365              1340.4695              1347.1281
 Red. masses --      1.4615                 2.0540                 2.3102
 Frc consts  --      1.5113                 2.1745                 2.4701
 IR Inten    --      0.4022                 9.4475                 7.8233

                     70                     71                     72
                      A                      A                      A
 Frequencies --   1352.1855              1361.5300              1370.3644
 Red. masses --      1.7013                 1.6443                 1.2922
 Frc consts  --      1.8327                 1.7959                 1.4297
 IR Inten    --     29.4568                 8.6392                 2.5996

                     73                     74                     75
                      A                      A                      A
 Frequencies --   1389.9676              1407.3121              1438.3249
 Red. masses --      1.6075                 1.3826                 1.5055
 Frc consts  --      1.8299                 1.6134                 1.8350
 IR Inten    --      2.9385                14.3553                15.2513

                     76                     77                     78
                      A                      A                      A
 Frequencies --   1440.3450              1451.8353              1484.3396
 Red. masses --      1.9960                 1.1619                 1.2892
 Frc consts  --      2.4398                 1.4429                 1.6736
 IR Inten    --     31.7381                 5.9403                48.5331

                     79                     80                     81
                      A                      A                      A
 Frequencies --   1495.2995              1509.3409              1510.1802
 Red. masses --      2.1287                 1.4037                 1.6459
 Frc consts  --      2.8043                 1.8841                 2.2116
 IR Inten    --     18.4515                31.9464                78.5172

                     82                     83                     84
                      A                      A                      A
 Frequencies --   1513.1499              1516.2824              1520.4457
 Red. masses --      1.0948                 1.0924                 1.0794
 Frc consts  --      1.4769                 1.4797                 1.4702
 IR Inten    --     13.9105                 6.9948                31.6775

                     85                     86                     87
                      A                      A                      A
 Frequencies --   1542.9623              1614.1604              1631.5920
 Red. masses --      2.2344                 6.8270                 5.8518
 Frc consts  --      3.1342                10.4804                 9.1784
 IR Inten    --     28.1989                14.1695                 4.9373

                     88                     89                     90
                      A                      A                      A
 Frequencies --   1641.5713              1652.1864              1664.4529
 Red. masses --      6.3134                 1.3278                 2.7905
 Frc consts  --     10.0238                 2.1355                 4.5549
 IR Inten    --      2.9462               149.0417                38.7556

                     91                     92                     93
                      A                      A                      A
 Frequencies --   3034.4272              3066.8153              3079.1505
 Red. masses --      1.0827                 1.0659                 1.0600
 Frc consts  --      5.8735                 5.9067                 5.9213
 IR Inten    --     25.9091                39.5661                40.4940

                     94                     95                     96
                      A                      A                      A
 Frequencies --   3096.9400              3121.0806              3125.7069
 Red. masses --      1.0858                 1.0985                 1.0959
 Frc consts  --      6.1356                 6.3047                 6.3086
 IR Inten    --      6.8870                54.8866                39.2658

                     97                     98                     99
                      A                      A                      A
 Frequencies --   3131.5702              3195.7174              3205.6324
 Red. masses --      1.0387                 1.0880                 1.0873
 Frc consts  --      6.0013                 6.5466                 6.5828
 IR Inten    --     28.2663                25.7602                 4.5094

                    100                    101                    102
                      A                      A                      A
 Frequencies --   3215.9686              3217.2323              3224.4271
 Red. masses --      1.0899                 1.0922                 1.1083
 Frc consts  --      6.6413                 6.6607                 6.7890
 IR Inten    --     13.4359                34.9510                 6.0039

                    103                    104                    105
                      A                      A                      A
 Frequencies --   3227.5185              3229.7098              3233.7389
 Red. masses --      1.0910                 1.0972                 1.1090
 Frc consts  --      6.6960                 6.7431                 6.8325
 IR Inten    --      2.4820                37.2576                 6.4830

                    106                    107                    108
                      A                      A                      A
 Frequencies --   3243.3020              3399.9420              3456.2247
 Red. masses --      1.0937                 1.0625                 1.0874
 Frc consts  --      6.7782                 7.2366                 7.6532
 IR Inten    --      5.6491               189.6119               163.2059

 - Thermochemistry -
 -------------------
 Temperature   298.150 Kelvin.  Pressure   1.00000 Atm.
 Atom     1 has atomic number  6 and mass  12.00000

 Molecular mass:   306.08163 amu.
 Principal axes and moments of inertia in atomic units:
                           1         2         3
     Eigenvalues --  3013.58054********************
           X            0.99997   0.00373  -0.00712
           Y           -0.00400   0.99928  -0.03763
           Z            0.00698   0.03765   0.99927
 This molecule is an asymmetric top.
 Rotational symmetry number  1.
 Warning -- assumption of classical behavior for rotation
           may cause significant error
 Rotational temperatures (Kelvin)      0.02874     0.00656     0.00620
 Rotational constants (GHZ):           0.59887     0.13666     0.12925
 Zero-point vibrational energy     834748.9 (Joules/Mol)
                                  199.50978 (Kcal/Mol)
 Warning -- explicit consideration of  27 degrees of freedom as
           vibrations may cause significant error
 Vibrational temperatures:     18.97    51.15    60.91   113.42   121.54
          (Kelvin)            174.22   186.56   239.82   281.19   286.90
                              299.53   324.12   341.97   428.15   442.98
                              483.72   529.04   586.60   618.19   637.95
                              645.61   660.76   679.99   686.47   751.54
                              797.67   861.57   905.67   921.17   986.07
                             1002.71  1028.02  1060.16  1122.35  1138.87
                             1167.77  1199.27  1211.30  1265.45  1278.30
                             1298.13  1305.03  1358.18  1389.00  1394.30
                             1406.41  1449.17  1472.71  1489.05  1491.15
                             1546.19  1552.26  1584.66  1639.65  1648.71
                             1657.26  1676.91  1691.73  1724.99  1728.50
                             1762.41  1766.34  1789.67  1816.32  1834.75
                             1880.54  1906.14  1928.64  1938.22  1945.49
                             1958.94  1971.65  1999.85  2024.81  2069.43
                             2072.34  2088.87  2135.63  2151.40  2171.60
                             2172.81  2177.09  2181.59  2187.58  2219.98
                             2322.42  2347.50  2361.86  2377.13  2394.78
                             4365.86  4412.46  4430.21  4455.81  4490.54
                             4497.20  4505.63  4597.92  4612.19  4627.06
                             4628.88  4639.23  4643.68  4646.83  4652.63
                             4666.39  4891.76  4972.74

 Zero-point correction=                           0.317939 (Hartree/Particle)
 Thermal correction to Energy=                    0.335661
 Thermal correction to Enthalpy=                  0.336605
 Thermal correction to Gibbs Free Energy=         0.270150
 Sum of electronic and zero-point Energies=          -1633.354931
 Sum of electronic and thermal Energies=             -1633.337209
 Sum of electronic and thermal Enthalpies=           -1633.336265
 Sum of electronic and thermal Free Energies=        -1633.402720

                     E (Thermal)             CV                S
                      KCal/Mol        Cal/Mol-Kelvin    Cal/Mol-Kelvin
 Total                  210.630             69.051            139.866
 Electronic               0.000              0.000              0.000
 Translational            0.889              2.981             43.053
 Rotational               0.889              2.981             34.673
 Vibrational            208.853             63.089             62.140
 Vibration     1          0.593              1.987              7.462
 Vibration     2          0.594              1.982              5.493
 Vibration     3          0.595              1.980              5.147
 Vibration     4          0.600              1.963              3.920
 Vibration     5          0.601              1.960              3.784
 Vibration     6          0.609              1.932              3.083
 Vibration     7          0.612              1.924              2.951
 Vibration     8          0.624              1.883              2.473
 Vibration     9          0.636              1.846              2.176
 Vibration    10          0.638              1.841              2.139
 Vibration    11          0.641              1.828              2.060
 Vibration    12          0.650              1.803              1.916
 Vibration    13          0.656              1.783              1.820
 Vibration    14          0.691              1.678              1.430
 Vibration    15          0.698              1.659              1.374
 Vibration    16          0.717              1.603              1.230
 Vibration    17          0.740              1.539              1.089
 Vibration    18          0.772              1.453              0.935
 Vibration    19          0.791              1.406              0.860
 Vibration    20          0.803              1.375              0.816
 Vibration    21          0.808              1.364              0.800
 Vibration    22          0.817              1.340              0.768
 Vibration    23          0.829              1.311              0.730
 Vibration    24          0.834              1.301              0.718
 Vibration    25          0.877              1.201              0.605
 Vibration    26          0.910              1.130              0.535
 Vibration    27          0.957              1.034              0.452

 Optimization completed on the basis of negligible forces.
    -- Stationary point found.
 Normal termination of Gaussian 16 at Sun Jul 11 16:38:52 2021.

 ----------------------------------------------------------------------
 #p b3lyp/6-31G(d) scrf=(iefpcm,read,solvent=water) geom=allcheck guess
 =read
 ----------------------------------------------------------------------

 Structure from the checkpoint file:  "SET_328_BBB2_conf1.geo_240_060.chk"
 ---------------------------------------
 SET_328_BBB2_conf1.geo_240_060 geometry
 ---------------------------------------
 Charge =  1 Multiplicity = 1

 SCF Done:  E(RB3LYP) =  -1633.67287022     A.U. after    1 cycles
 Normal termination of Gaussian 16 at Sun Jul 11 16:39:07 2021.

 -----------------------------
 #p B3LYP/6-31G* geom=allcheck
 -----------------------------

 Structure from the checkpoint file:  "SET_328_BBB2_conf1.geo_240_060.chk"
 ---------------------------------------
 SET_328_BBB2_conf1.geo_240_060 geometry
 ---------------------------------------
 Charge =  1 Multiplicity = 1

 SCF Done:  E(RB3LYP) =  -1633.56902639     A.U. after   15 cycles

 The electronic state is 1-A.
 Alpha  occ. eigenvalues -- -101.62956-101.62623 -14.63597 -10.41358 -10.40617
 Alpha  occ. eigenvalues --  -10.34768 -10.34536 -10.34530 -10.34190 -10.33130
 Alpha  occ. eigenvalues --  -10.32947 -10.32549 -10.32008 -10.31636 -10.31298
 Alpha  occ. eigenvalues --  -10.31068 -10.30583 -10.29894 -10.29529 -10.29417
 Alpha  occ. eigenvalues --   -9.54556  -9.54218  -7.30988  -7.30655  -7.29977
 Alpha  occ. eigenvalues --   -7.29922  -7.29640  -7.29579  -1.18390  -1.00750
 Alpha  occ. eigenvalues --   -0.99427  -0.95935  -0.94203  -0.93289  -0.90941
 Alpha  occ. eigenvalues --   -0.89094  -0.88048  -0.85978  -0.83690  -0.82210
 Alpha  occ. eigenvalues --   -0.78321  -0.77127  -0.74045  -0.73221  -0.71627
 Alpha  occ. eigenvalues --   -0.71003  -0.69298  -0.67779  -0.66085  -0.63052
 Alpha  occ. eigenvalues --   -0.61090  -0.60584  -0.59973  -0.59058  -0.58373
 Alpha  occ. eigenvalues --   -0.57553  -0.56190  -0.56136  -0.55441  -0.53912
 Alpha  occ. eigenvalues --   -0.53358  -0.53095  -0.52108  -0.51340  -0.50286
 Alpha  occ. eigenvalues --   -0.49474  -0.48871  -0.47807  -0.47440  -0.45989
 Alpha  occ. eigenvalues --   -0.45359  -0.44603  -0.42067  -0.41235  -0.40048
 Alpha  occ. eigenvalues --   -0.38021  -0.37964  -0.37242  -0.34262  -0.32822
 Alpha virt. eigenvalues --   -0.15145  -0.13630  -0.12737  -0.11074  -0.10450
 Alpha virt. eigenvalues --   -0.09094  -0.07282  -0.06046  -0.05053  -0.03062
 Alpha virt. eigenvalues --   -0.02110  -0.01735  -0.01315  -0.00448  -0.00140

 Mulliken charges:
               1
     1  C   -0.360363
     2  H    0.232558
     3  H    0.248282
     4  H    0.225032
     5  N   -0.611738
     6  H    0.408745
     7  C   -0.103737
     8  C    0.100065
     9  C    0.122879
    10  C   -0.177055
    11  C   -0.119360
    12  C   -0.121210
    13  C   -0.208441
    14  H    0.111972
    15  H    0.169783
    16  H    0.176276
    17  H    0.174190
    18  H    0.211475
    19  C   -0.305078
    20  H    0.166594
    21  H    0.169744
    22  C   -0.285447
    23  H    0.185395
    24  H    0.169870
    25  C   -0.250542
    26  H    0.162659
    27  C    0.165485
    28  C   -0.175363
    29  H    0.154578
    30  C   -0.075600
    31  Cl   0.038912
    32  C   -0.076082
    33  Cl   0.049384
    34  C   -0.122530
    35  H    0.181761
    36  C   -0.193263
    37  H    0.146773
    38  H    0.413400
 Sum of Mulliken charges =   1.00000

 Dipole moment (field-independent basis, Debye):
    X=            -20.0623    Y=             -3.5671    Z=              0.6855  Tot=             20.3885
 Quadrupole moment (field-independent basis, Debye-Ang):
   XX=            -34.4633   YY=           -111.3805   ZZ=           -118.0233
   XY=             11.4284   XZ=            -17.4976   YZ=             -2.7817

 Normal termination of Gaussian 16 at Sun Jul 11 16:40:12 2021.
 Gaussian 16:  ES64L-G16RevB.01 20-Dec-2017

 --------------------------------------------------------
 #p mp2/aug-cc-pVDZ scf=tight maxdisk=180GB geom=allcheck
 --------------------------------------------------------

 Structure from the checkpoint file:  "SET_328_BBB2_conf1.geo_240_060.chk"
 ---------------------------------------
 SET_328_BBB2_conf1.geo_240_060 geometry
 ---------------------------------------
 Charge =  1 Multiplicity = 1

                         Standard orientation:
 ---------------------------------------------------------------------
 Center     Atomic      Atomic             Coordinates (Angstroms)
 Number     Number       Type             X           Y           Z
 ---------------------------------------------------------------------
      1          6           0       -5.291361   -0.951521   -0.595168
      2          1           0       -4.877825   -1.851234   -1.043702
      3          1           0       -4.988836   -0.072528   -1.158246
      4          1           0       -6.376442   -1.020584   -0.548851
      5          7           0       -4.780891   -0.824714    0.805038
      6          1           0       -5.085276   -1.650775    1.344625
      7          6           0       -3.271605   -0.697482    0.982063
      8          6           0       -2.715158    0.490835    0.211089
      9          6           0       -1.488230    0.397745   -0.476635
     10          6           0       -1.016936    1.526230   -1.165425
     11          6           0       -1.720016    2.727450   -1.166931
     12          6           0       -2.916883    2.826492   -0.456851
     13          6           0       -3.400524    1.715697    0.228156
     14          1           0       -4.329109    1.814160    0.782114
     15          1           0       -3.469504    3.759066   -0.433272
     16          1           0       -1.330924    3.582760   -1.709519
     17          1           0       -0.076439    1.455466   -1.702256
     18          1           0       -3.160510   -0.513195    2.054188
     19          6           0       -2.608057   -2.030574    0.639032
     20          1           0       -2.945558   -2.383373   -0.340908
     21          1           0       -2.902629   -2.781839    1.376973
     22          6           0       -1.092763   -1.861325    0.611875
     23          1           0       -0.611127   -2.830239    0.458300
     24          1           0       -0.741782   -1.480497    1.577588
     25          6           0       -0.676886   -0.899921   -0.515718
     26          1           0       -0.909493   -1.400405   -1.464861
     27          6           0        0.827628   -0.681792   -0.504856
     28          6           0        1.453885    0.001118    0.544286
     29          1           0        0.870322    0.430052    1.350321
     30          6           0        2.838107    0.150483    0.571157
     31         17           0        3.563310    1.015440    1.910800
     32          6           0        3.623955   -0.383577   -0.456892
     33         17           0        5.365933   -0.214312   -0.457534
     34          6           0        3.009778   -1.063649   -1.506230
     35          1           0        3.620089   -1.473785   -2.301638
     36          6           0        1.624403   -1.208913   -1.525675
     37          1           0        1.157168   -1.741110   -2.347131
     38          1           0       -5.249041   -0.031892    1.261823
 ---------------------------------------------------------------------

 SCF Done:  E(RHF) =  -1627.57011693     A.U. after   17 cycles
