 Gaussian 16, Revision B.01,

 -----------------------------------------------------------
 #p b3lyp/6-31G(d) opt freq scrf=(iefpcm,read,solvent=water)
 -----------------------------------------------------------

 -----------------------------------------
 SET_328_BBB282_conf1.geo_000_270 geometry
 -----------------------------------------
 Symbolic Z-matrix:
 Charge = -1 Multiplicity = 1

 SCF Done:  E(RB3LYP) =  -799.185830863     A.U. after   15 cycles
 SCF Done:  E(RB3LYP) =  -799.231008558     A.U. after   12 cycles
 SCF Done:  E(RB3LYP) =  -799.259604213     A.U. after   12 cycles
 SCF Done:  E(RB3LYP) =  -799.256009348     A.U. after   12 cycles
 SCF Done:  E(RB3LYP) =  -799.265640588     A.U. after   12 cycles
 SCF Done:  E(RB3LYP) =  -799.266820804     A.U. after   11 cycles
 SCF Done:  E(RB3LYP) =  -799.266999802     A.U. after   10 cycles
 SCF Done:  E(RB3LYP) =  -799.266976856     A.U. after   10 cycles
 SCF Done:  E(RB3LYP) =  -799.267171955     A.U. after   10 cycles
 SCF Done:  E(RB3LYP) =  -799.267211755     A.U. after    9 cycles
 SCF Done:  E(RB3LYP) =  -799.267223863     A.U. after    7 cycles
 SCF Done:  E(RB3LYP) =  -799.267224254     A.U. after    7 cycles
 SCF Done:  E(RB3LYP) =  -799.267224299     A.U. after    7 cycles
 SCF Done:  E(RB3LYP) =  -799.267224475     A.U. after    8 cycles
 SCF Done:  E(RB3LYP) =  -799.267224224     A.U. after    8 cycles
 SCF Done:  E(RB3LYP) =  -799.267224575     A.U. after    7 cycles
 Optimization completed.
    -- Stationary point found.
 Normal termination of Gaussian 16 at Sun Jul 11 16:20:50 2021.

 --------------------------------------------------------------------
 #P Geom=AllCheck Guess=TCheck SCRF=Check GenChk RB3LYP/6-31G(d) Freq
 --------------------------------------------------------------------

 Structure from the checkpoint file:  "SET_328_BBB282_conf1.geo_000_270.chk"
 -----------------------------------------
 SET_328_BBB282_conf1.geo_000_270 geometry
 -----------------------------------------
 Charge = -1 Multiplicity = 1

 SCF Done:  E(RB3LYP) =  -799.267224575     A.U. after    1 cycles

  Exact polarizability: 287.104   5.449 245.461  -3.466 -16.074  94.423
 Approx polarizability: 305.367  19.114 303.666  -6.207 -24.477 109.189

                      1                      2                      3
                      A                      A                      A
 Frequencies --     34.1502                60.1620                72.3618
 Red. masses --     10.0483                 1.1733                 3.9089
 Frc consts  --      0.0069                 0.0025                 0.0121
 IR Inten    --      0.4755                 0.0253                 3.9029

                      4                      5                      6
                      A                      A                      A
 Frequencies --     74.3619                95.2820               108.5079
 Red. masses --      2.8304                 4.0306                 4.8155
 Frc consts  --      0.0092                 0.0216                 0.0334
 IR Inten    --      1.1431                 0.1063                 4.9673

                      7                      8                      9
                      A                      A                      A
 Frequencies --    171.8874               200.7477               220.1063
 Red. masses --      6.4209                 5.3643                 1.3647
 Frc consts  --      0.1118                 0.1274                 0.0390
 IR Inten    --      4.2849                20.1777                 4.4976

                     10                     11                     12
                      A                      A                      A
 Frequencies --    250.6290               264.7633               294.4395
 Red. masses --      4.7304                 2.0656                 4.7556
 Frc consts  --      0.1751                 0.0853                 0.2429
 IR Inten    --      2.7905                 2.9243                 2.9894

                     13                     14                     15
                      A                      A                      A
 Frequencies --    304.3580               364.3903               380.6731
 Red. masses --      6.9108                 4.3311                 3.3311
 Frc consts  --      0.3772                 0.3388                 0.2844
 IR Inten    --     11.7568                 4.9893                 2.8301

                     16                     17                     18
                      A                      A                      A
 Frequencies --    396.3395               428.8420               441.2281
 Red. masses --      5.3249                 8.1914                 4.2608
 Frc consts  --      0.4928                 0.8876                 0.4887
 IR Inten    --     10.0833                 3.3080                 0.2453

                     19                     20                     21
                      A                      A                      A
 Frequencies --    486.7572               508.9456               543.9082
 Red. masses --      5.1817                 4.3570                 4.0032
 Frc consts  --      0.7234                 0.6649                 0.6978
 IR Inten    --     13.9727                10.6844                16.1608

                     22                     23                     24
                      A                      A                      A
 Frequencies --    565.5084               646.6646               663.8647
 Red. masses --      5.6425                 4.1213                 4.8436
 Frc consts  --      1.0632                 1.0154                 1.2577
 IR Inten    --      2.3467                 2.5268                28.0735

                     25                     26                     27
                      A                      A                      A
 Frequencies --    715.5411               723.2244               748.5762
 Red. masses --      7.7968                 5.3849                 8.9080
 Frc consts  --      2.3520                 1.6595                 2.9410
 IR Inten    --      1.1368                 8.3923               156.1389

                     28                     29                     30
                      A                      A                      A
 Frequencies --    783.4635               789.7671               804.7299
 Red. masses --      7.7712                 5.0330                 1.2751
 Frc consts  --      2.8105                 1.8496                 0.4865
 IR Inten    --      0.5114                 0.5646                16.9509

                     31                     32                     33
                      A                      A                      A
 Frequencies --    815.2054               865.4017               887.9645
 Red. masses --      3.7681                 1.6175                 5.2966
 Frc consts  --      1.4754                 0.7137                 2.4606
 IR Inten    --     68.6031                 4.4223                30.7570

                     34                     35                     36
                      A                      A                      A
 Frequencies --    948.8198               977.1055               988.9313
 Red. masses --      4.3018                 2.2153                 1.3885
 Frc consts  --      2.2818                 1.2462                 0.8001
 IR Inten    --     10.6767                 6.7044                 8.5150

                     37                     38                     39
                      A                      A                      A
 Frequencies --   1018.1451              1040.6528              1068.7237
 Red. masses --      1.3316                 1.8121                 1.5835
 Frc consts  --      0.8133                 1.1562                 1.0656
 IR Inten    --      0.1592                 0.0474                11.0890

                     40                     41                     42
                      A                      A                      A
 Frequencies --   1074.2224              1116.2983              1121.8081
 Red. masses --      3.1907                 2.0022                 1.9780
 Frc consts  --      2.1693                 1.4700                 1.4666
 IR Inten    --      1.2149                 5.9731                14.4008

                     43                     44                     45
                      A                      A                      A
 Frequencies --   1161.1077              1170.1287              1255.0759
 Red. masses --      1.7233                 1.7917                 1.9742
 Frc consts  --      1.3688                 1.4454                 1.8322
 IR Inten    --     72.0412                35.2180                25.3383

                     46                     47                     48
                      A                      A                      A
 Frequencies --   1273.9435              1291.2411              1323.9096
 Red. masses --      3.3784                 1.8856                 3.3753
 Frc consts  --      3.2305                 1.8523                 3.4856
 IR Inten    --     14.1216               289.6533               159.3568

                     49                     50                     51
                      A                      A                      A
 Frequencies --   1354.2745              1373.6685              1390.1402
 Red. masses --      4.3242                 7.6854                 2.6425
 Frc consts  --      4.6727                 8.5443                 3.0087
 IR Inten    --    130.6293               725.5549                37.9110

                     52                     53                     54
                      A                      A                      A
 Frequencies --   1398.3913              1414.4745              1425.9617
 Red. masses --      2.1311                 1.5842                 1.3213
 Frc consts  --      2.4553                 1.8674                 1.5830
 IR Inten    --     95.9921                35.0949                 1.6226

                     55                     56                     57
                      A                      A                      A
 Frequencies --   1433.5160              1474.0677              1495.0555
 Red. masses --      1.2969                 3.4128                 1.1276
 Frc consts  --      1.5703                 4.3691                 1.4849
 IR Inten    --     14.3666               482.3176                20.9214

                     58                     59                     60
                      A                      A                      A
 Frequencies --   1495.8833              1500.6253              1511.1729
 Red. masses --      1.1247                 1.1057                 1.0522
 Frc consts  --      1.4828                 1.4670                 1.4157
 IR Inten    --     15.8021                 4.0797                20.2185

                     61                     62                     63
                      A                      A                      A
 Frequencies --   1522.5758              1531.5570              1588.7387
 Red. masses --      1.3498                 2.0972                 5.1070
 Frc consts  --      1.8436                 2.8984                 7.5949
 IR Inten    --     48.1380               121.9908                76.3673

                     64                     65                     66
                      A                      A                      A
 Frequencies --   1634.0578              1638.8180              1657.8921
 Red. masses --      7.9666                 8.2296                 8.2399
 Frc consts  --     12.5330                13.0224                13.3440
 IR Inten    --    250.4482                 3.3099               266.3836

                     67                     68                     69
                      A                      A                      A
 Frequencies --   1687.3067              3068.1676              3072.6571
 Red. masses --     11.1090                 1.0376                 1.0349
 Frc consts  --     18.6343                 5.7549                 5.7569
 IR Inten    --   1709.6521                26.4626                29.0067

                     70                     71                     72
                      A                      A                      A
 Frequencies --   3121.2114              3125.5642              3142.6326
 Red. masses --      1.0643                 1.1011                 1.1033
 Frc consts  --      6.1090                 6.3380                 6.4202
 IR Inten    --     29.7971                19.0510                35.3364

                     73                     74                     75
                      A                      A                      A
 Frequencies --   3149.5213              3160.8896              3184.3371
 Red. masses --      1.1003                 1.1021                 1.1053
 Frc consts  --      6.4308                 6.4878                 6.6034
 IR Inten    --     50.9680                28.9046                23.9059

                     76                     77                     78
                      A                      A                      A
 Frequencies --   3222.4186              3236.9949              3256.4659
 Red. masses --      1.0885                 1.0944                 1.0905
 Frc consts  --      6.6593                 6.7565                 6.8138
 IR Inten    --      7.4894                20.5583                 3.0020

 - Thermochemistry -
 -------------------
 Temperature   298.150 Kelvin.  Pressure   1.00000 Atm.
 Atom     1 has atomic number  6 and mass  12.00000

 Molecular mass:   231.07697 amu.
 Principal axes and moments of inertia in atomic units:
                           1         2         3
     Eigenvalues --  2277.556075195.822027286.29570
           X            0.99999  -0.00508   0.00069
           Y            0.00507   0.99996   0.00759
           Z           -0.00073  -0.00758   0.99997
 This molecule is an asymmetric top.
 Rotational symmetry number  1.
 Warning -- assumption of classical behavior for rotation
           may cause significant error
 Rotational temperatures (Kelvin)      0.03803     0.01667     0.01189
 Rotational constants (GHZ):           0.79240     0.34734     0.24769
 Zero-point vibrational energy     567101.1 (Joules/Mol)
                                  135.54042 (Kcal/Mol)
 Warning -- explicit consideration of  22 degrees of freedom as
           vibrations may cause significant error
 Vibrational temperatures:     49.13    86.56   104.11   106.99   137.09
          (Kelvin)            156.12   247.31   288.83   316.68   360.60
                              380.94   423.63   437.90   524.28   547.70
                              570.24   617.01   634.83   700.34   732.26
                              782.56   813.64   930.41   955.15  1029.50
                             1040.56  1077.03  1127.23  1136.30  1157.83
                             1172.90  1245.12  1277.58  1365.14  1405.84
                             1422.85  1464.88  1497.27  1537.65  1545.57
                             1606.10  1614.03  1670.58  1683.55  1805.77
                             1832.92  1857.81  1904.81  1948.50  1976.40
                             2000.10  2011.97  2035.11  2051.64  2062.51
                             2120.85  2151.05  2152.24  2159.07  2174.24
                             2190.65  2203.57  2285.84  2351.04  2357.89
                             2385.34  2427.66  4414.41  4420.87  4490.73
                             4496.99  4521.55  4531.46  4547.82  4581.55
                             4636.34  4657.31  4685.33

 Zero-point correction=                           0.215997 (Hartree/Particle)
 Thermal correction to Energy=                    0.230884
 Thermal correction to Enthalpy=                  0.231828
 Thermal correction to Gibbs Free Energy=         0.173005
 Sum of electronic and zero-point Energies=           -799.051227
 Sum of electronic and thermal Energies=              -799.036341
 Sum of electronic and thermal Enthalpies=            -799.035396
 Sum of electronic and thermal Free Energies=         -799.094220

                     E (Thermal)             CV                S
                      KCal/Mol        Cal/Mol-Kelvin    Cal/Mol-Kelvin
 Total                  144.882             55.685            123.805
 Electronic               0.000              0.000              0.000
 Translational            0.889              2.981             42.215
 Rotational               0.889              2.981             32.822
 Vibrational            143.104             49.723             48.768
 Vibration     1          0.594              1.983              5.572
 Vibration     2          0.597              1.973              4.452
 Vibration     3          0.598              1.967              4.088
 Vibration     4          0.599              1.966              4.034
 Vibration     5          0.603              1.953              3.549
 Vibration     6          0.606              1.942              3.295
 Vibration     7          0.626              1.877              2.415
 Vibration     8          0.638              1.839              2.126
 Vibration     9          0.647              1.810              1.958
 Vibration    10          0.663              1.762              1.726
 Vibration    11          0.671              1.738              1.630
 Vibration    12          0.689              1.684              1.448
 Vibration    13          0.695              1.665              1.393
 Vibration    14          0.738              1.546              1.103
 Vibration    15          0.750              1.511              1.036
 Vibration    16          0.763              1.478              0.976
 Vibration    17          0.790              1.407              0.862
 Vibration    18          0.801              1.380              0.823
 Vibration    19          0.843              1.279              0.692
 Vibration    20          0.864              1.230              0.636
 Vibration    21          0.899              1.153              0.557
 Vibration    22          0.921              1.106              0.513

 Optimization completed.
    -- Stationary point found.
 Normal termination of Gaussian 16 at Sun Jul 11 16:28:46 2021.

 ----------------------------------------------------------------------
 #p b3lyp/6-31G(d) scrf=(iefpcm,read,solvent=water) geom=allcheck guess
 =read
 ----------------------------------------------------------------------

 Structure from the checkpoint file:  "SET_328_BBB282_conf1.geo_000_270.chk"
 -----------------------------------------
 SET_328_BBB282_conf1.geo_000_270 geometry
 -----------------------------------------
 Charge = -1 Multiplicity = 1

 SCF Done:  E(RB3LYP) =  -799.267224575     A.U. after    1 cycles
 Normal termination of Gaussian 16 at Sun Jul 11 16:28:54 2021.

 -----------------------------
 #p B3LYP/6-31G* geom=allcheck
 -----------------------------

 Structure from the checkpoint file:  "SET_328_BBB282_conf1.geo_000_270.chk"
 -----------------------------------------
 SET_328_BBB282_conf1.geo_000_270 geometry
 -----------------------------------------
 Charge = -1 Multiplicity = 1

 SCF Done:  E(RB3LYP) =  -799.144691080     A.U. after   18 cycles
 Normal termination of Gaussian 16 at Sun Jul 11 16:29:35 2021.
 Gaussian 16:  ES64L-G16RevB.01 20-Dec-2017

 --------------------------------------------------------
 #p mp2/aug-cc-pVDZ scf=tight maxdisk=180GB geom=allcheck
 --------------------------------------------------------

 Structure from the checkpoint file:  "SET_328_BBB282_conf1.geo_000_270.chk"
 -----------------------------------------
 SET_328_BBB282_conf1.geo_000_270 geometry
 -----------------------------------------
 Charge = -1 Multiplicity = 1

                         Standard orientation:
 ---------------------------------------------------------------------
 Center     Atomic      Atomic             Coordinates (Angstroms)
 Number     Number       Type             X           Y           Z
 ---------------------------------------------------------------------
      1          6           0        0.941525    3.290369    0.903409
      2          1           0        0.059651    3.352511    1.547060
      3          1           0        1.309412    4.305336    0.727513
      4          1           0        1.719248    2.729005    1.428024
      5          6           0        0.599835    2.634069   -0.430969
      6          1           0        1.481567    2.566055   -1.065213
      7          1           0       -0.164430    3.205473   -0.959097
      8          7           0        0.065114    1.269766   -0.275695
      9          6           0       -1.276053    1.072607   -0.224825
     10          1           0       -1.882381    1.961183   -0.338581
     11          6           0       -1.918873   -0.128710   -0.052658
     12          6           0       -3.448044   -0.072974   -0.054832
     13          8           0       -4.089218   -1.153672    0.032311
     14          8           0       -3.960274    1.081602   -0.153379
     15          6           0       -1.112235   -1.332225    0.103986
     16          8           0       -1.536101   -2.489379    0.281870
     17          6           0        0.349765   -1.097528    0.038408
     18          6           0        1.248575   -2.164854    0.158662
     19          1           0        0.836926   -3.157928    0.300383
     20          6           0        2.611216   -1.934442    0.095666
     21          1           0        3.323931   -2.746229    0.187213
     22          6           0        3.071436   -0.617866   -0.089293
     23          6           0        4.542860   -0.310538   -0.166710
     24          1           0        4.789560    0.144098   -1.131596
     25          1           0        5.142573   -1.214207   -0.044297
     26          1           0        4.826493    0.406557    0.610038
     27          7           0        2.234099    0.418827   -0.204910
     28          6           0        0.914612    0.182022   -0.144782
 ---------------------------------------------------------------------

 SCF Done:  E(RHF) =  -794.467479060     A.U. after   18 cycles
 E2 =    -0.2577799776D+01 EUMP2 =    -0.79704527883675D+03

 The electronic state is 1-A.
 Alpha  occ. eigenvalues --  -20.39110 -20.30950 -20.30541 -15.52079 -15.48255
 Alpha  occ. eigenvalues --  -11.23919 -11.21694 -11.20253 -11.19285 -11.17922
 Alpha  occ. eigenvalues --  -11.17458 -11.16768 -11.16191 -11.15222 -11.15006
 Alpha  occ. eigenvalues --  -11.14219 -11.09643  -1.23490  -1.21505  -1.17758
 Alpha  occ. eigenvalues --   -1.15725  -1.07186  -1.01003  -0.98338  -0.96245
 Alpha  occ. eigenvalues --   -0.91135  -0.88594  -0.79968  -0.78198  -0.76016
 Alpha  occ. eigenvalues --   -0.70872  -0.64875  -0.61714  -0.61286  -0.56345
 Alpha  occ. eigenvalues --   -0.55153  -0.53816  -0.52406  -0.51747  -0.51156
 Alpha  occ. eigenvalues --   -0.50224  -0.48449  -0.47079  -0.46337  -0.45567
 Alpha  occ. eigenvalues --   -0.44732  -0.43833  -0.42595  -0.41736  -0.40291
 Alpha  occ. eigenvalues --   -0.39364  -0.37881  -0.35761  -0.33982  -0.29140
 Alpha  occ. eigenvalues --   -0.28356  -0.23978  -0.22169  -0.20730  -0.19561
 Alpha  occ. eigenvalues --   -0.18700
 Alpha virt. eigenvalues --    0.08667   0.09664   0.10616   0.11068   0.12040
 Alpha virt. eigenvalues --    0.12583   0.13342   0.14103   0.15180   0.15512
 Alpha virt. eigenvalues --    0.16580   0.16875   0.17385   0.18246   0.18786

 Mulliken charges:
               1
     1  C    0.541727
     2  H   -0.087230
     3  H   -0.093940
     4  H   -0.071638
     5  C    0.615143
     6  H   -0.194881
     7  H   -0.269900
     8  N   -0.326460
     9  C    0.684097
    10  H   -0.752202
    11  C    0.371192
    12  C    0.859688
    13  O   -0.981567
    14  O   -1.035608
    15  C    0.169660
    16  O   -0.985441
    17  C    1.593466
    18  C   -0.340456
    19  H   -0.681685
    20  C    0.682630
    21  H   -0.589895
    22  C   -0.234545
    23  C    0.676475
    24  H    0.091630
    25  H   -0.129381
    26  H    0.083632
    27  N   -0.717300
    28  C    0.122789
 Sum of Mulliken charges =  -1.00000

 Dipole moment (field-independent basis, Debye):
    X=             19.6438    Y=              4.5273    Z=             -0.3282  Tot=             20.1614
 Quadrupole moment (field-independent basis, Debye-Ang):
   XX=           -183.3456   YY=           -113.6404   ZZ=           -103.3216
   XY=            -12.1317   XZ=              0.2079   YZ=              0.5826

 Normal termination of Gaussian 16 at Sun Jul 11 16:58:48 2021.
