 Gaussian 16, Revision B.01,

 -----------------------------------------------------------
 #p b3lyp/6-31G(d) opt freq scrf=(iefpcm,read,solvent=water)
 -----------------------------------------------------------

 -----------------------------------------
 SET_328_BBB212_conf1.geo_135_120 geometry
 -----------------------------------------
 Symbolic Z-matrix:
 Charge = -1 Multiplicity = 1

 SCF Done:  E(RB3LYP) =  -731.149693726     A.U. after   13 cycles
 SCF Done:  E(RB3LYP) =  -731.181032996     A.U. after   11 cycles
 SCF Done:  E(RB3LYP) =  -731.194714062     A.U. after   12 cycles
 SCF Done:  E(RB3LYP) =  -731.195460239     A.U. after   10 cycles
 SCF Done:  E(RB3LYP) =  -731.195675138     A.U. after   10 cycles
 SCF Done:  E(RB3LYP) =  -731.196076316     A.U. after    9 cycles
 SCF Done:  E(RB3LYP) =  -731.196092759     A.U. after   10 cycles
 SCF Done:  E(RB3LYP) =  -731.196120651     A.U. after    9 cycles
 SCF Done:  E(RB3LYP) =  -731.196146485     A.U. after    9 cycles
 SCF Done:  E(RB3LYP) =  -731.196134554     A.U. after    8 cycles
 SCF Done:  E(RB3LYP) =  -731.196135483     A.U. after    7 cycles
 SCF Done:  E(RB3LYP) =  -731.196135047     A.U. after    7 cycles
 SCF Done:  E(RB3LYP) =  -731.196135503     A.U. after    7 cycles
 Optimization completed.
    -- Stationary point found.
 Normal termination of Gaussian 16 at Sun Jul 11 16:10:36 2021.

 --------------------------------------------------------------------
 #P Geom=AllCheck Guess=TCheck SCRF=Check GenChk RB3LYP/6-31G(d) Freq
 --------------------------------------------------------------------

 Structure from the checkpoint file:  "SET_328_BBB212_conf1.geo_135_120.chk"
 -----------------------------------------
 SET_328_BBB212_conf1.geo_135_120 geometry
 -----------------------------------------
 Charge = -1 Multiplicity = 1

 SCF Done:  E(RB3LYP) =  -731.196135503     A.U. after    1 cycles

  Exact polarizability: 281.601   9.224 202.734 -34.962  -0.419 196.856
 Approx polarizability: 310.097  14.331 232.304 -43.600  -0.565 229.411

 ******    1 imaginary frequencies (negative Signs) ******

                      1                      2                      3
                      A                      A                      A
 Frequencies --     -9.1501                28.5288                48.1408
 Red. masses --      3.6453                 3.7202                 6.7050
 Frc consts  --      0.0002                 0.0018                 0.0092
 IR Inten    --      3.6425                 1.0016                 7.6661

                      4                      5                      6
                      A                      A                      A
 Frequencies --     96.1158               157.2692               171.7413
 Red. masses --      4.7453                 5.6259                 4.5309
 Frc consts  --      0.0258                 0.0820                 0.0787
 IR Inten    --      1.9524                 2.1933                 0.2198

                      7                      8                      9
                      A                      A                      A
 Frequencies --    216.0033               272.1596               275.0109
 Red. masses --      3.0614                 3.6838                 3.6502
 Frc consts  --      0.0842                 0.1608                 0.1627
 IR Inten    --      1.5362                 3.0798                 1.5610

                     10                     11                     12
                      A                      A                      A
 Frequencies --    300.3180               317.3126               333.0616
 Red. masses --      1.3731                 2.0971                 2.0682
 Frc consts  --      0.0730                 0.1244                 0.1352
 IR Inten    --      1.0826                 0.2126                 3.5154

                     13                     14                     15
                      A                      A                      A
 Frequencies --    348.7706               353.2065               367.2855
 Red. masses --      1.1329                 1.4173                 3.7851
 Frc consts  --      0.0812                 0.1042                 0.3008
 IR Inten    --    174.4327                18.2087                 4.4083

                     16                     17                     18
                      A                      A                      A
 Frequencies --    416.6877               423.1509               431.2277
 Red. masses --      3.8680                 3.2723                 3.3150
 Frc consts  --      0.3957                 0.3452                 0.3632
 IR Inten    --      3.1321                 1.1409                 0.0587

                     19                     20                     21
                      A                      A                      A
 Frequencies --    452.3017               481.8355               489.3626
 Red. masses --      4.5267                 3.8353                 3.6854
 Frc consts  --      0.5456                 0.5246                 0.5200
 IR Inten    --     10.4409                 3.1135                 3.4845

                     22                     23                     24
                      A                      A                      A
 Frequencies --    540.3065               558.2077               571.6659
 Red. masses --      3.8672                 2.3450                 2.3370
 Frc consts  --      0.6652                 0.4305                 0.4500
 IR Inten    --      9.8071                46.3440                32.5129

                     25                     26                     27
                      A                      A                      A
 Frequencies --    648.1558               652.1196               655.9031
 Red. masses --      6.2659                 6.0204                 6.9047
 Frc consts  --      1.5509                 1.5084                 1.7502
 IR Inten    --      3.2636                 2.9744                 0.1603

                     28                     29                     30
                      A                      A                      A
 Frequencies --    735.5821               750.9980               768.3312
 Red. masses --      4.2093                 3.7913                 2.8206
 Frc consts  --      1.3419                 1.2599                 0.9811
 IR Inten    --      8.4163                 4.5618                18.5039

                     31                     32                     33
                      A                      A                      A
 Frequencies --    815.7288               824.4635               840.9227
 Red. masses --      1.2616                 1.2933                 1.7472
 Frc consts  --      0.4946                 0.5180                 0.7279
 IR Inten    --      2.1327                 9.1386                45.2159

                     34                     35                     36
                      A                      A                      A
 Frequencies --    842.1668               847.1687               852.1267
 Red. masses --      2.2207                 5.7283                 5.0158
 Frc consts  --      0.9280                 2.4222                 2.1458
 IR Inten    --     80.5077                12.1629                14.8916

                     37                     38                     39
                      A                      A                      A
 Frequencies --    925.5578               945.5718               946.9282
 Red. masses --      1.9237                 1.2831                 1.3056
 Frc consts  --      0.9709                 0.6759                 0.6898
 IR Inten    --      4.0517                 1.9209                 0.9470

                     40                     41                     42
                      A                      A                      A
 Frequencies --    950.4206               955.5202               956.7736
 Red. masses --      1.4674                 1.3758                 1.4648
 Frc consts  --      0.7809                 0.7401                 0.7900
 IR Inten    --      1.4151                 0.5272                 2.5927

                     43                     44                     45
                      A                      A                      A
 Frequencies --   1003.8072              1030.2041              1041.3924
 Red. masses --      2.8687                 2.6891                 1.3273
 Frc consts  --      1.7031                 1.6815                 0.8481
 IR Inten    --      6.2289                 7.0765                 4.7140

                     46                     47                     48
                      A                      A                      A
 Frequencies --   1105.5616              1123.6130              1132.6407
 Red. masses --      1.8570                 1.6806                 2.1037
 Frc consts  --      1.3373                 1.2501                 1.5901
 IR Inten    --     20.2316                10.7216                 5.5770

                     49                     50                     51
                      A                      A                      A
 Frequencies --   1144.0639              1175.4274              1199.5660
 Red. masses --      1.6487                 1.9118                 1.2204
 Frc consts  --      1.2714                 1.5562                 1.0347
 IR Inten    --     13.1513                14.5881               141.1510

                     52                     53                     54
                      A                      A                      A
 Frequencies --   1205.6878              1217.4180              1260.1078
 Red. masses --      1.1810                 1.4119                 3.3919
 Frc consts  --      1.0115                 1.2329                 3.1733
 IR Inten    --    123.8478               165.3817                19.2056

                     55                     56                     57
                      A                      A                      A
 Frequencies --   1264.7735              1278.7623              1299.2064
 Red. masses --      3.6267                 2.9272                 3.3358
 Frc consts  --      3.4181                 2.8202                 3.3174
 IR Inten    --     55.3774                31.4493               167.8497

                     58                     59                     60
                      A                      A                      A
 Frequencies --   1338.0381              1344.6155              1385.9734
 Red. masses --      1.7458                 2.2782                 1.9342
 Frc consts  --      1.8415                 2.4268                 2.1890
 IR Inten    --     43.1324                29.5860                30.4090

                     61                     62                     63
                      A                      A                      A
 Frequencies --   1407.3079              1415.6625              1427.4127
 Red. masses --      3.1100                 1.2792                 1.2415
 Frc consts  --      3.6290                 1.5104                 1.4904
 IR Inten    --    288.0844                31.4036                 0.4488

                     64                     65                     66
                      A                      A                      A
 Frequencies --   1462.5216              1475.3077              1507.1981
 Red. masses --      3.4044                 2.6525                 1.0555
 Frc consts  --      4.2904                 3.4015                 1.4126
 IR Inten    --     25.6744                60.7115                 1.2870

                     67                     68                     69
                      A                      A                      A
 Frequencies --   1516.8856              1522.8608              1527.4039
 Red. masses --      1.0656                 1.0610                 1.0648
 Frc consts  --      1.4446                 1.4498                 1.4636
 IR Inten    --     14.8849                 2.3998                17.6493

                     70                     71                     72
                      A                      A                      A
 Frequencies --   1553.0041              1558.9918              1567.8638
 Red. masses --      3.8702                 2.5269                 3.9695
 Frc consts  --      5.4996                 3.6184                 5.7491
 IR Inten    --    386.3171               112.7138               315.9933

                     73                     74                     75
                      A                      A                      A
 Frequencies --   1641.9996              1653.3227              1669.9336
 Red. masses --      5.5901                 5.7233                 5.7713
 Frc consts  --      8.8801                 9.2175                 9.4824
 IR Inten    --     26.0428               362.5399                62.0904

                     76                     77                     78
                      A                      A                      A
 Frequencies --   3055.1678              3061.4286              3122.4516
 Red. masses --      1.0351                 1.0354                 1.1014
 Frc consts  --      5.6927                 5.7176                 6.3269
 IR Inten    --     45.9194                51.2715                40.2100

                     79                     80                     81
                      A                      A                      A
 Frequencies --   3129.5828              3131.3168              3136.8996
 Red. masses --      1.1026                 1.1025                 1.1027
 Frc consts  --      6.3627                 6.3689                 6.3931
 IR Inten    --     96.0644                71.9057                58.3356

                     82                     83                     84
                      A                      A                      A
 Frequencies --   3149.7482              3166.3195              3170.2693
 Red. masses --      1.0849                 1.0876                 1.0921
 Frc consts  --      6.3415                 6.4244                 6.4670
 IR Inten    --     51.0689                82.1048                76.5641

                     85                     86                     87
                      A                      A                      A
 Frequencies --   3194.7445              3196.6672              3208.8198
 Red. masses --      1.0872                 1.0905                 1.0902
 Frc consts  --      6.5376                 6.5657                 6.6134
 IR Inten    --     25.9908                57.9701                29.3787

                     88                     89                     90
                      A                      A                      A
 Frequencies --   3210.8231              3238.3767              3722.8811
 Red. masses --      1.0928                 1.0908                 1.0662
 Frc consts  --      6.6376                 6.7399                 8.7069
 IR Inten    --     20.0360                24.7341               183.1990

 - Thermochemistry -
 -------------------
 Temperature   298.150 Kelvin.  Pressure   1.00000 Atm.
 Atom     1 has atomic number  6 and mass  12.00000

 Molecular mass:   227.10720 amu.
 Principal axes and moments of inertia in atomic units:
                           1         2         3
     Eigenvalues --  2094.225346902.235197768.47612
           X            0.99996  -0.00834  -0.00294
           Y            0.00832   0.99993  -0.00781
           Z            0.00300   0.00778   0.99997
 This molecule is an asymmetric top.
 Rotational symmetry number  1.
 Warning -- assumption of classical behavior for rotation
           may cause significant error
 Rotational temperatures (Kelvin)      0.04136     0.01255     0.01115
 Rotational constants (GHZ):           0.86177     0.26147     0.23232
    1 imaginary frequencies ignored.
 Zero-point vibrational energy     687363.1 (Joules/Mol)
                                  164.28373 (Kcal/Mol)
 Warning -- explicit consideration of  23 degrees of freedom as
           vibrations may cause significant error
 Vibrational temperatures:     41.05    69.26   138.29   226.28   247.10
          (Kelvin)            310.78   391.58   395.68   432.09   456.54
                              479.20   501.80   508.19   528.44   599.52
                              608.82   620.44   650.76   693.25   704.08
                              777.38   803.14   822.50   932.55   938.25
                              943.70  1058.34  1080.52  1105.46  1173.65
                             1186.22  1209.90  1211.69  1218.89  1226.02
                             1331.67  1360.47  1362.42  1367.44  1374.78
                             1376.58  1444.25  1482.23  1498.33  1590.66
                             1616.63  1629.62  1646.05  1691.18  1725.91
                             1734.72  1751.59  1813.01  1819.73  1839.85
                             1869.27  1925.14  1934.60  1994.11  2024.80
                             2036.82  2053.73  2104.24  2122.64  2168.52
                             2182.46  2191.06  2197.59  2234.43  2243.04
                             2255.81  2362.47  2378.76  2402.66  4395.71
                             4404.71  4492.51  4502.77  4505.27  4513.30
                             4531.79  4555.63  4561.31  4596.52  4599.29
                             4616.78  4619.66  4659.30  5356.40

 Zero-point correction=                           0.261803 (Hartree/Particle)
 Thermal correction to Energy=                    0.275957
 Thermal correction to Enthalpy=                  0.276901
 Thermal correction to Gibbs Free Energy=         0.220753
 Sum of electronic and zero-point Energies=           -730.934333
 Sum of electronic and thermal Energies=              -730.920178
 Sum of electronic and thermal Enthalpies=            -730.919234
 Sum of electronic and thermal Free Energies=         -730.975383

                     E (Thermal)             CV                S
                      KCal/Mol        Cal/Mol-Kelvin    Cal/Mol-Kelvin
 Total                  173.166             58.207            118.175
 Electronic               0.000              0.000              0.000
 Translational            0.889              2.981             42.163
 Rotational               0.889              2.981             33.084
 Vibrational            171.388             52.246             42.928
 Vibration     1          0.593              1.984              5.929
 Vibration     2          0.595              1.978              4.892
 Vibration     3          0.603              1.952              3.532
 Vibration     4          0.621              1.895              2.582
 Vibration     5          0.626              1.877              2.416
 Vibration     6          0.645              1.817              1.992
 Vibration     7          0.675              1.725              1.582
 Vibration     8          0.677              1.720              1.565
 Vibration     9          0.693              1.673              1.415
 Vibration    10          0.704              1.641              1.324
 Vibration    11          0.715              1.609              1.245
 Vibration    12          0.726              1.578              1.172
 Vibration    13          0.729              1.569              1.152
 Vibration    14          0.740              1.540              1.091
 Vibration    15          0.780              1.434              0.903
 Vibration    16          0.785              1.420              0.881
 Vibration    17          0.792              1.402              0.855
 Vibration    18          0.811              1.356              0.789
 Vibration    19          0.838              1.290              0.705
 Vibration    20          0.845              1.274              0.685
 Vibration    21          0.895              1.161              0.565
 Vibration    22          0.914              1.122              0.527
 Vibration    23          0.928              1.093              0.501

                           ! Non-Optimized Parameters !
 Normal termination of Gaussian 16 at Sun Jul 11 16:20:43 2021.

 ----------------------------------------------------------------------
 #p b3lyp/6-31G(d) scrf=(iefpcm,read,solvent=water) geom=allcheck guess
 =read
 ----------------------------------------------------------------------

 Structure from the checkpoint file:  "SET_328_BBB212_conf1.geo_135_120.chk"
 -----------------------------------------
 SET_328_BBB212_conf1.geo_135_120 geometry
 -----------------------------------------
 Charge = -1 Multiplicity = 1

 SCF Done:  E(RB3LYP) =  -731.196135503     A.U. after    1 cycles
 Normal termination of Gaussian 16 at Sun Jul 11 16:20:52 2021.

 -----------------------------
 #p B3LYP/6-31G* geom=allcheck
 -----------------------------

 Structure from the checkpoint file:  "SET_328_BBB212_conf1.geo_135_120.chk"
 -----------------------------------------
 SET_328_BBB212_conf1.geo_135_120 geometry
 -----------------------------------------
 Charge = -1 Multiplicity = 1

 SCF Done:  E(RB3LYP) =  -731.090597514     A.U. after   19 cycles

 The electronic state is 1-A.
 Alpha  occ. eigenvalues --  -19.09112 -18.87199 -10.15038 -10.09112 -10.08645
 Alpha  occ. eigenvalues --  -10.08456 -10.08360 -10.08201 -10.07997 -10.06417
 Alpha  occ. eigenvalues --  -10.06070 -10.03743 -10.01852 -10.01701 -10.01209
 Alpha  occ. eigenvalues --   -9.99293  -9.99084  -0.97002  -0.75747  -0.75092
 Alpha  occ. eigenvalues --   -0.70067  -0.64799  -0.64537  -0.61908  -0.57747
 Alpha  occ. eigenvalues --   -0.55956  -0.54000  -0.52144  -0.50233  -0.45584
 Alpha  occ. eigenvalues --   -0.44601  -0.42327  -0.39590  -0.37672  -0.36271
 Alpha  occ. eigenvalues --   -0.34570  -0.33698  -0.32099  -0.31320  -0.30740
 Alpha  occ. eigenvalues --   -0.29696  -0.28293  -0.27778  -0.27351  -0.26519
 Alpha  occ. eigenvalues --   -0.25908  -0.24357  -0.23880  -0.23481  -0.22196
 Alpha  occ. eigenvalues --   -0.21390  -0.19447  -0.18842  -0.16231  -0.16111
 Alpha  occ. eigenvalues --   -0.14997  -0.12311  -0.10922  -0.07351  -0.01516
 Alpha  occ. eigenvalues --    0.00762
 Alpha virt. eigenvalues --    0.09907   0.11733   0.14648   0.17544   0.19315
 Alpha virt. eigenvalues --    0.20310   0.21572   0.23294   0.25193   0.25381
 Alpha virt. eigenvalues --    0.25578   0.26048   0.26934   0.27852   0.29958

 Mulliken charges:
               1
     1  C   -0.446067
     2  H    0.101812
     3  H    0.137996
     4  H    0.141965
     5  C   -0.044633
     6  C   -0.445902
     7  H    0.136241
     8  H    0.135453
     9  H    0.113265
    10  C    0.183631
    11  C   -0.204257
    12  C   -0.167633
    13  C    0.341703
    14  O   -0.660923
    15  H    0.394968
    16  C   -0.200331
    17  C   -0.178264
    18  H    0.142978
    19  H    0.094658
    20  H    0.106043
    21  H    0.111335
    22  C    0.135267
    23  C   -0.204552
    24  H    0.055336
    25  C   -0.233095
    26  H    0.049078
    27  C    0.421074
    28  O   -0.716407
    29  C   -0.226071
    30  H    0.053026
    31  C   -0.191366
    32  H    0.063671
 Sum of Mulliken charges =  -1.00000

 Dipole moment (field-independent basis, Debye):
    X=             13.4491    Y=              3.9976    Z=              1.7332  Tot=             14.1372
 Quadrupole moment (field-independent basis, Debye-Ang):
   XX=           -179.3872   YY=           -112.3439   ZZ=           -101.6970
   XY=            -26.9043   XZ=              1.7059   YZ=             -5.7416

 Normal termination of Gaussian 16 at Sun Jul 11 16:21:42 2021.
 Gaussian 16:  ES64L-G16RevB.01 20-Dec-2017

 --------------------------------------------------------
 #p mp2/aug-cc-pVDZ scf=tight maxdisk=180GB geom=allcheck
 --------------------------------------------------------

 Structure from the checkpoint file:  "SET_328_BBB212_conf1.geo_135_120.chk"
 -----------------------------------------
 SET_328_BBB212_conf1.geo_135_120 geometry
 -----------------------------------------
 Charge = -1 Multiplicity = 1

                         Standard orientation:
 ---------------------------------------------------------------------
 Center     Atomic      Atomic             Coordinates (Angstroms)
 Number     Number       Type             X           Y           Z
 ---------------------------------------------------------------------
      1          6           0       -0.100920    2.375765   -1.223937
      2          1           0        0.753722    3.060446   -1.243998
      3          1           0       -1.015389    2.975428   -1.195227
      4          1           0       -0.099344    1.805197   -2.156607
      5          6           0       -0.055565    1.448758    0.008646
      6          6           0       -0.013995    2.351410    1.258775
      7          1           0        0.006738    1.766808    2.183529
      8          1           0       -0.886885    3.009700    1.294062
      9          1           0        0.882634    2.978251    1.233725
     10          6           0        1.216464    0.582520    0.007962
     11          6           0        2.238187    0.721637   -0.939774
     12          6           0        3.391642   -0.065612   -0.901869
     13          6           0        3.553323   -1.020550    0.104844
     14          8           0        4.698778   -1.766032    0.096738
     15          1           0        4.680386   -2.396993    0.837841
     16          6           0        2.546845   -1.176487    1.067432
     17          6           0        1.402523   -0.385977    1.007364
     18          1           0        0.627384   -0.533673    1.752743
     19          1           0        2.657230   -1.915504    1.855716
     20          1           0        4.169918    0.052387   -1.648969
     21          1           0        2.138227    1.454259   -1.730808
     22          6           0       -1.301909    0.549892   -0.001745
     23          6           0       -2.339461    0.646094    0.938168
     24          1           0       -2.267156    1.374061    1.740990
     25          6           0       -3.470852   -0.165311    0.883545
     26          1           0       -4.247643   -0.057164    1.637285
     27          6           0       -3.666094   -1.155563   -0.133646
     28          8           0       -4.706322   -1.913981   -0.191112
     29          6           0       -2.591584   -1.231319   -1.086968
     30          1           0       -2.676935   -1.964835   -1.887218
     31          6           0       -1.470738   -0.414792   -1.014449
     32          1           0       -0.689740   -0.531046   -1.764158
 ---------------------------------------------------------------------

 SCF Done:  E(RHF) =  -726.570198958     A.U. after   17 cycles
