 Gaussian 16, Revision B.01,

 -----------------------------------------------------------
 #p b3lyp/6-31G(d) opt freq scrf=(iefpcm,read,solvent=water)
 -----------------------------------------------------------

 -----------------------------------------
 SET_328_BBB304_conf1.geo_210_060 geometry
 -----------------------------------------
 Symbolic Z-matrix:
 Charge =  1 Multiplicity = 1

 SCF Done:  E(RB3LYP) =  -741.147261880     A.U. after   13 cycles
 SCF Done:  E(RB3LYP) =  -741.186802699     A.U. after   11 cycles
 SCF Done:  E(RB3LYP) =  -741.202831228     A.U. after   12 cycles
 SCF Done:  E(RB3LYP) =  -741.205729128     A.U. after   10 cycles
 SCF Done:  E(RB3LYP) =  -741.207006847     A.U. after   10 cycles
 SCF Done:  E(RB3LYP) =  -741.207343677     A.U. after   10 cycles
 SCF Done:  E(RB3LYP) =  -741.207720619     A.U. after   10 cycles
 SCF Done:  E(RB3LYP) =  -741.208122812     A.U. after   10 cycles
 SCF Done:  E(RB3LYP) =  -741.208317824     A.U. after   10 cycles
 SCF Done:  E(RB3LYP) =  -741.208963840     A.U. after   10 cycles
 SCF Done:  E(RB3LYP) =  -741.212273810     A.U. after    8 cycles
 SCF Done:  E(RB3LYP) =  -741.212273139     A.U. after    8 cycles
 SCF Done:  E(RB3LYP) =  -741.212285806     A.U. after    9 cycles
 SCF Done:  E(RB3LYP) =  -741.212284687     A.U. after    7 cycles
 SCF Done:  E(RB3LYP) =  -741.212284083     A.U. after    7 cycles
 SCF Done:  E(RB3LYP) =  -741.212283372     A.U. after    7 cycles
 Optimization completed.
    -- Stationary point found.
 Normal termination of Gaussian 16 at Sun Jul 11 16:33:33 2021.

 --------------------------------------------------------------------
 #P Geom=AllCheck Guess=TCheck SCRF=Check GenChk RB3LYP/6-31G(d) Freq
 --------------------------------------------------------------------

 Structure from the checkpoint file:  "SET_328_BBB304_conf1.geo_210_060.chk"
 -----------------------------------------
 SET_328_BBB304_conf1.geo_210_060 geometry
 -----------------------------------------
 Charge =  1 Multiplicity = 1

 SCF Done:  E(RB3LYP) =  -741.212283372     A.U. after    1 cycles

  Exact polarizability: 211.463  14.047 164.563   1.687 -14.026 100.629
 Approx polarizability: 220.534  18.968 188.414  -1.231 -18.085 113.073

                      1                      2                      3
                      A                      A                      A
 Frequencies --     35.9628                56.5947                70.3679
 Red. masses --      5.2157                 4.6941                 4.6879
 Frc consts  --      0.0040                 0.0089                 0.0137
 IR Inten    --      1.0064                 4.0479                 1.3799

                      4                      5                      6
                      A                      A                      A
 Frequencies --    104.2774               133.6576               178.2753
 Red. masses --      4.4606                 2.9596                 4.7125
 Frc consts  --      0.0286                 0.0312                 0.0882
 IR Inten    --     11.8603                 3.1510                 2.4436

                      7                      8                      9
                      A                      A                      A
 Frequencies --    195.1679               225.5311               237.3385
 Red. masses --      4.7382                 5.0677                 2.9137
 Frc consts  --      0.1063                 0.1519                 0.0967
 IR Inten    --      3.4243                10.1416                11.7065

                     10                     11                     12
                      A                      A                      A
 Frequencies --    293.1970               308.1735               364.8370
 Red. masses --      3.0649                 3.0521                 2.7842
 Frc consts  --      0.1552                 0.1708                 0.2184
 IR Inten    --      4.2562                23.8750                59.0100

                     13                     14                     15
                      A                      A                      A
 Frequencies --    379.8165               383.1295               422.0674
 Red. masses --      1.4275                 1.5358                 2.3735
 Frc consts  --      0.1213                 0.1328                 0.2491
 IR Inten    --    421.6490                89.2112                54.9075

                     16                     17                     18
                      A                      A                      A
 Frequencies --    449.7238               536.2833               549.5409
 Red. masses --      3.1798                 3.8619                 1.0481
 Frc consts  --      0.3789                 0.6544                 0.1865
 IR Inten    --     23.8879                 8.8754                 8.8583

                     19                     20                     21
                      A                      A                      A
 Frequencies --    570.5633               579.3573               612.3604
 Red. masses --      2.8112                 5.1389                 5.9289
 Frc consts  --      0.5392                 1.0163                 1.3099
 IR Inten    --      5.0066                14.7850                 5.7729

                     22                     23                     24
                      A                      A                      A
 Frequencies --    662.4250               681.3784               692.0965
 Red. masses --      3.4126                 3.8456                 1.1921
 Frc consts  --      0.8823                 1.0519                 0.3364
 IR Inten    --      2.4492                38.3099               101.7919

                     25                     26                     27
                      A                      A                      A
 Frequencies --    712.2822               757.4596               793.2429
 Red. masses --      3.4548                 9.2622                 6.2706
 Frc consts  --      1.0327                 3.1310                 2.3247
 IR Inten    --      4.3253                98.3213                20.6243

                     28                     29                     30
                      A                      A                      A
 Frequencies --    800.5978               808.2644               845.9572
 Red. masses --      1.6035                 4.2780                 3.7980
 Frc consts  --      0.6055                 1.6466                 1.6014
 IR Inten    --     47.4170                 5.1797                41.9604

                     31                     32                     33
                      A                      A                      A
 Frequencies --    868.5155               916.0487               955.1336
 Red. masses --      2.0263                 1.7536                 2.5697
 Frc consts  --      0.9005                 0.8670                 1.3812
 IR Inten    --     19.6746                24.4035                33.5776

                     34                     35                     36
                      A                      A                      A
 Frequencies --    986.3897              1008.7205              1011.1263
 Red. masses --      2.2373                 1.6328                 1.8086
 Frc consts  --      1.2826                 0.9789                 1.0895
 IR Inten    --     37.0628                 3.4845                13.7623

                     37                     38                     39
                      A                      A                      A
 Frequencies --   1020.0690              1044.8263              1081.6379
 Red. masses --      1.5868                 2.0461                 2.5408
 Frc consts  --      0.9728                 1.3160                 1.7514
 IR Inten    --      5.5339                26.7393                60.2082

                     40                     41                     42
                      A                      A                      A
 Frequencies --   1099.0307              1122.8233              1129.2020
 Red. masses --      3.0493                 4.5393                 1.9813
 Frc consts  --      2.1700                 3.3718                 1.4885
 IR Inten    --    272.5813               321.5680                37.4823

                     43                     44                     45
                      A                      A                      A
 Frequencies --   1147.0373              1191.2453              1211.8882
 Red. masses --      2.1268                 1.6682                 1.4771
 Frc consts  --      1.6487                 1.3948                 1.2782
 IR Inten    --      7.7539                20.9742                10.6866

                     46                     47                     48
                      A                      A                      A
 Frequencies --   1231.0916              1246.4589              1267.0751
 Red. masses --      1.4382                 1.2325                 6.2033
 Frc consts  --      1.2842                 1.1283                 5.8678
 IR Inten    --     58.5579                26.2001                15.9154

                     49                     50                     51
                      A                      A                      A
 Frequencies --   1314.1993              1319.8877              1334.5827
 Red. masses --      1.6501                 1.3087                 1.2945
 Frc consts  --      1.6791                 1.3432                 1.3584
 IR Inten    --    375.3214                 2.3941                16.4925

                     52                     53                     54
                      A                      A                      A
 Frequencies --   1358.8269              1380.1786              1386.2051
 Red. masses --      1.3891                 1.3447                 1.4180
 Frc consts  --      1.5112                 1.5092                 1.6054
 IR Inten    --     38.9549                20.4920                 5.9061

                     55                     56                     57
                      A                      A                      A
 Frequencies --   1408.5241              1432.1071              1434.1676
 Red. masses --      1.4747                 1.4235                 1.4594
 Frc consts  --      1.7238                 1.7201                 1.7686
 IR Inten    --     25.8252                27.0985                 3.2132

                     58                     59                     60
                      A                      A                      A
 Frequencies --   1435.3576              1470.0354              1510.0977
 Red. masses --      1.3330                 1.9107                 1.0879
 Frc consts  --      1.6181                 2.4327                 1.4616
 IR Inten    --     87.7840                15.7711                 4.1162

                     61                     62                     63
                      A                      A                      A
 Frequencies --   1516.6245              1523.1454              1570.2974
 Red. masses --      1.0916                 1.1131                 5.3514
 Frc consts  --      1.4793                 1.5214                 7.7746
 IR Inten    --      0.9240                10.4563               284.8553

                     64                     65                     66
                      A                      A                      A
 Frequencies --   1611.0697              1661.4841              1694.2725
 Red. masses --      1.5811                 2.6017                 3.9570
 Frc consts  --      2.4178                 4.2316                 6.6924
 IR Inten    --     28.0924                 0.8240              1741.4340

                     67                     68                     69
                      A                      A                      A
 Frequencies --   1780.9104              3035.2537              3049.6378
 Red. masses --      9.4632                 1.0708                 1.0835
 Frc consts  --     17.6837                 5.8125                 5.9369
 IR Inten    --    992.1020                42.6909               123.4501

                     70                     71                     72
                      A                      A                      A
 Frequencies --   3095.4304              3097.3310              3122.1529
 Red. masses --      1.0684                 1.0593                 1.0959
 Frc consts  --      6.0318                 5.9874                 6.2939
 IR Inten    --     17.1494                25.1916                50.4948

                     73                     74                     75
                      A                      A                      A
 Frequencies --   3129.0719              3148.4778              3166.2936
 Red. masses --      1.0870                 1.1056                 1.1014
 Frc consts  --      6.2709                 6.4572                 6.5056
 IR Inten    --     23.1780                22.0530                32.0858

                     76                     77                     78
                      A                      A                      A
 Frequencies --   3287.0221              3296.7666              3490.6332
 Red. masses --      1.0900                 1.0978                 1.0797
 Frc consts  --      6.9386                 7.0299                 7.7511
 IR Inten    --      6.0729                 5.6579               273.8318

                     79                     80                     81
                      A                      A                      A
 Frequencies --   3546.7460              3659.4289              3715.1757
 Red. masses --      1.0475                 1.1071                 1.0658
 Frc consts  --      7.7635                 8.7354                 8.6672
 IR Inten    --    524.5432               217.5944                72.4922

 - Thermochemistry -
 -------------------
 Temperature   298.150 Kelvin.  Pressure   1.00000 Atm.
 Atom     1 has atomic number  7 and mass  14.00307

 Molecular mass:   212.10352 amu.
 Principal axes and moments of inertia in atomic units:
                           1         2         3
     Eigenvalues --  1217.303285863.967446497.00544
           X            0.99998   0.00475   0.00450
           Y           -0.00479   0.99996   0.00815
           Z           -0.00446  -0.00817   0.99996
 This molecule is an asymmetric top.
 Rotational symmetry number  1.
 Warning -- assumption of classical behavior for rotation
           may cause significant error
 Rotational temperatures (Kelvin)      0.07115     0.01477     0.01333
 Rotational constants (GHZ):           1.48257     0.30777     0.27778
 Zero-point vibrational energy     639760.7 (Joules/Mol)
                                  152.90648 (Kcal/Mol)
 Warning -- explicit consideration of  21 degrees of freedom as
           vibrations may cause significant error
 Vibrational temperatures:     51.74    81.43   101.24   150.03   192.30
          (Kelvin)            256.50   280.80   324.49   341.48   421.85
                              443.39   524.92   546.47   551.24   607.26
                              647.05   771.59   790.67   820.91   833.57
                              881.05   953.08   980.35   995.77  1024.82
                             1089.82  1141.30  1151.88  1162.91  1217.14
                             1249.60  1317.99  1374.22  1419.19  1451.32
                             1454.79  1467.65  1503.27  1556.24  1581.26
                             1615.49  1624.67  1650.33  1713.94  1743.64
                             1771.27  1793.38  1823.04  1890.84  1899.02
                             1920.17  1955.05  1985.77  1994.44  2026.55
                             2060.48  2063.45  2065.16  2115.05  2172.69
                             2182.08  2191.47  2259.31  2317.97  2390.50
                             2437.68  2562.33  4367.05  4387.75  4453.63
                             4456.37  4492.08  4502.04  4529.96  4555.59
                             4729.29  4743.31  5022.24  5102.98  5265.10
                             5345.31

 Zero-point correction=                           0.243672 (Hartree/Particle)
 Thermal correction to Energy=                    0.257357
 Thermal correction to Enthalpy=                  0.258301
 Thermal correction to Gibbs Free Energy=         0.202702
 Sum of electronic and zero-point Energies=           -740.968611
 Sum of electronic and thermal Energies=              -740.954927
 Sum of electronic and thermal Enthalpies=            -740.953983
 Sum of electronic and thermal Free Energies=         -741.009581

                     E (Thermal)             CV                S
                      KCal/Mol        Cal/Mol-Kelvin    Cal/Mol-Kelvin
 Total                  161.494             53.091            117.017
 Electronic               0.000              0.000              0.000
 Translational            0.889              2.981             41.959
 Rotational               0.889              2.981             32.206
 Vibrational            159.716             47.130             42.852
 Vibration     1          0.594              1.982              5.470
 Vibration     2          0.596              1.975              4.573
 Vibration     3          0.598              1.968              4.143
 Vibration     4          0.605              1.946              3.373
 Vibration     5          0.613              1.920              2.893
 Vibration     6          0.629              1.869              2.346
 Vibration     7          0.636              1.847              2.178
 Vibration     8          0.650              1.802              1.914
 Vibration     9          0.656              1.784              1.823
 Vibration    10          0.688              1.686              1.455
 Vibration    11          0.698              1.658              1.372
 Vibration    12          0.738              1.545              1.101
 Vibration    13          0.750              1.513              1.040
 Vibration    14          0.752              1.506              1.027
 Vibration    15          0.784              1.422              0.885
 Vibration    16          0.809              1.361              0.797
 Vibration    17          0.891              1.170              0.573
 Vibration    18          0.905              1.141              0.545
 Vibration    19          0.927              1.095              0.503
 Vibration    20          0.936              1.076              0.487
 Vibration    21          0.972              1.006              0.429

                           ! Non-Optimized Parameters !
 Normal termination of Gaussian 16 at Sun Jul 11 16:40:26 2021.

 ----------------------------------------------------------------------
 #p b3lyp/6-31G(d) scrf=(iefpcm,read,solvent=water) geom=allcheck guess
 =read
 ----------------------------------------------------------------------

 Structure from the checkpoint file:  "SET_328_BBB304_conf1.geo_210_060.chk"
 -----------------------------------------
 SET_328_BBB304_conf1.geo_210_060 geometry
 -----------------------------------------
 Charge =  1 Multiplicity = 1

 SCF Done:  E(RB3LYP) =  -741.212283372     A.U. after    1 cycles
 Normal termination of Gaussian 16 at Sun Jul 11 16:40:34 2021.

 -----------------------------
 #p B3LYP/6-31G* geom=allcheck
 -----------------------------

 Structure from the checkpoint file:  "SET_328_BBB304_conf1.geo_210_060.chk"
 -----------------------------------------
 SET_328_BBB304_conf1.geo_210_060 geometry
 -----------------------------------------
 Charge =  1 Multiplicity = 1

 SCF Done:  E(RB3LYP) =  -741.102384015     A.U. after   14 cycles
 Normal termination of Gaussian 16 at Sun Jul 11 16:41:03 2021.
 Gaussian 16:  ES64L-G16RevB.01 20-Dec-2017

 --------------------------------------------------------
 #p mp2/aug-cc-pVDZ scf=tight maxdisk=180GB geom=allcheck
 --------------------------------------------------------

 Structure from the checkpoint file:  "SET_328_BBB304_conf1.geo_210_060.chk"
 -----------------------------------------
 SET_328_BBB304_conf1.geo_210_060 geometry
 -----------------------------------------
 Charge =  1 Multiplicity = 1

                         Standard orientation:
 ---------------------------------------------------------------------
 Center     Atomic      Atomic             Coordinates (Angstroms)
 Number     Number       Type             X           Y           Z
 ---------------------------------------------------------------------
      1          7           0       -4.633925   -0.926873    0.077491
      2          1           0       -4.924640   -1.882735    0.255512
      3          1           0       -5.353622   -0.229646   -0.090298
      4          6           0       -3.347759   -0.622638    0.026350
      5          6           0       -2.312476   -1.572975    0.227429
      6          6           0       -1.023155   -1.145083    0.135048
      7          1           0       -0.179180   -1.811527    0.243471
      8          1           0       -2.548496   -2.605512    0.432588
      9          7           0       -2.977626    0.660176   -0.234241
     10          6           0       -1.669217    1.123333   -0.318284
     11          8           0       -1.403057    2.292623   -0.546457
     12          7           0       -0.698802    0.148645   -0.123239
     13          6           0        0.725940    0.599244   -0.233264
     14          8           0        1.538239   -0.522378   -0.466649
     15          1           0        0.744859    1.261636   -1.099436
     16          6           0        1.235564    1.282178    1.047698
     17          1           0        0.645478    0.940972    1.902546
     18          1           0        1.152325    2.367254    0.985780
     19          6           0        2.677096    0.773287    1.140937
     20          1           0        3.061276    0.768802    2.163627
     21          1           0        3.346461    1.367386    0.514081
     22          6           0        2.577549   -0.631757    0.552634
     23          1           0        2.255552   -1.363174    1.305197
     24          6           0        3.830410   -1.143998   -0.144184
     25          1           0        3.622307   -2.130823   -0.579223
     26          1           0        4.622678   -1.267372    0.599124
     27          8           0        4.320176   -0.243643   -1.125135
     28          1           0        3.615002   -0.144973   -1.788493
     29          1           0       -3.694116    1.373716   -0.384805
 ---------------------------------------------------------------------

 SCF Done:  E(RHF) =  -736.826714130     A.U. after   14 cycles
 E2 =    -0.2337382537D+01 EUMP2 =    -0.73916409666629D+03

 The electronic state is 1-A.
 Alpha  occ. eigenvalues --  -20.71255 -20.70571 -20.66267 -15.82128 -15.80351
 Alpha  occ. eigenvalues --  -15.79999 -11.57852 -11.57400 -11.50236 -11.47578
 Alpha  occ. eigenvalues --  -11.41607 -11.40976 -11.38382 -11.36011 -11.34464
 Alpha  occ. eigenvalues --   -1.59180  -1.53857  -1.51156  -1.45849  -1.44867
 Alpha  occ. eigenvalues --   -1.40204  -1.25420  -1.19225  -1.15987  -1.10616
 Alpha  occ. eigenvalues --   -1.08373  -1.02947  -0.97059  -0.95994  -0.94143
 Alpha  occ. eigenvalues --   -0.91936  -0.89350  -0.86836  -0.85964  -0.83470
 Alpha  occ. eigenvalues --   -0.81679  -0.80186  -0.79439  -0.76738  -0.76232
 Alpha  occ. eigenvalues --   -0.74852  -0.73775  -0.72639  -0.70933  -0.68124
 Alpha  occ. eigenvalues --   -0.66975  -0.63630  -0.63459  -0.62248  -0.61496
 Alpha  occ. eigenvalues --   -0.61440  -0.60630  -0.59396  -0.56401  -0.54012
 Alpha  occ. eigenvalues --   -0.51096
 Alpha virt. eigenvalues --   -0.08828  -0.08679  -0.06704  -0.05767  -0.04560
 Alpha virt. eigenvalues --   -0.04192  -0.03685  -0.02700  -0.02488  -0.02150
 Alpha virt. eigenvalues --   -0.01739  -0.01242  -0.00779  -0.00367   0.00408

 Mulliken charges:
               1
     1  N   -0.288990
     2  H    0.054441
     3  H   -0.008025
     4  C    0.697322
     5  C    1.570158
     6  C    0.403279
     7  H   -0.476497
     8  H   -0.501868
     9  N   -0.590429
    10  C    0.869763
    11  O   -0.715982
    12  N   -0.393323
    13  C    1.102103
    14  O   -1.263299
    15  H   -0.370047
    16  C    0.630826
    17  H   -0.232891
    18  H   -0.128995
    19  C    0.583291
    20  H   -0.081164
    21  H   -0.134699
    22  C   -0.024587
    23  H   -0.295400
    24  C    1.349453
    25  H   -0.070840
    26  H   -0.115977
    27  O   -0.702606
    28  H    0.194763
    29  H   -0.059782
 Sum of Mulliken charges =   1.00000

 Dipole moment (field-independent basis, Debye):
    X=            -12.2371    Y=             -4.4333    Z=              2.1900  Tot=             13.1983
 Quadrupole moment (field-independent basis, Debye-Ang):
   XX=            -22.6557   YY=            -79.2393   ZZ=            -84.7178
   XY=              8.5704   XZ=              6.2965   YZ=             -1.3685

 Normal termination of Gaussian 16 at Sun Jul 11 16:57:36 2021.
