 Gaussian 16, Revision B.01,

 -----------------------------------------------------------
 #p b3lyp/6-31G(d) opt freq scrf=(iefpcm,read,solvent=water)
 -----------------------------------------------------------

 ---------------------------------------
 SET_328_BBB2_conf1.geo_225_285 geometry
 ---------------------------------------
 Symbolic Z-matrix:
 Charge =  1 Multiplicity = 1

 SCF Done:  E(RB3LYP) =  -1633.63633878     A.U. after   13 cycles
 SCF Done:  E(RB3LYP) =  -1633.66368622     A.U. after   11 cycles
 SCF Done:  E(RB3LYP) =  -1633.67200413     A.U. after   11 cycles
 SCF Done:  E(RB3LYP) =  -1633.67278505     A.U. after   10 cycles
 SCF Done:  E(RB3LYP) =  -1633.67353841     A.U. after   10 cycles
 SCF Done:  E(RB3LYP) =  -1633.67356754     A.U. after    9 cycles
 SCF Done:  E(RB3LYP) =  -1633.67353302     A.U. after    9 cycles
 SCF Done:  E(RB3LYP) =  -1633.67349372     A.U. after   10 cycles
 SCF Done:  E(RB3LYP) =  -1633.67356365     A.U. after    9 cycles
 SCF Done:  E(RB3LYP) =  -1633.67356779     A.U. after    8 cycles
 SCF Done:  E(RB3LYP) =  -1633.67354586     A.U. after    9 cycles
 SCF Done:  E(RB3LYP) =  -1633.67357203     A.U. after    9 cycles
 SCF Done:  E(RB3LYP) =  -1633.67353889     A.U. after    9 cycles
 SCF Done:  E(RB3LYP) =  -1633.67357149     A.U. after    9 cycles
 SCF Done:  E(RB3LYP) =  -1633.67354733     A.U. after    9 cycles
 SCF Done:  E(RB3LYP) =  -1633.67357084     A.U. after    9 cycles
 Optimization completed.
    -- Stationary point found.
 Normal termination of Gaussian 16 at Sun Jul 11 16:50:18 2021.

 --------------------------------------------------------------------
 #P Geom=AllCheck Guess=TCheck SCRF=Check GenChk RB3LYP/6-31G(d) Freq
 --------------------------------------------------------------------

 Structure from the checkpoint file:  "SET_328_BBB2_conf1.geo_225_285.chk"
 ---------------------------------------
 SET_328_BBB2_conf1.geo_225_285 geometry
 ---------------------------------------
 Charge =  1 Multiplicity = 1

 SCF Done:  E(RB3LYP) =  -1633.67357084     A.U. after    1 cycles

  Exact polarizability: 309.097 -13.851 260.831 -19.823  26.234 229.729
 Approx polarizability: 327.355 -14.911 293.264 -23.510  37.359 269.173

                      1                      2                      3
                      A                      A                      A
 Frequencies --     20.5599                26.5529                44.5929
 Red. masses --      6.9773                 5.1239                 6.6418
 Frc consts  --      0.0017                 0.0021                 0.0078
 IR Inten    --      2.3450                 1.0324                 1.1543

                      4                      5                      6
                      A                      A                      A
 Frequencies --     90.0776               101.4353               122.9226
 Red. masses --      4.0748                 4.0163                 5.3325
 Frc consts  --      0.0195                 0.0243                 0.0475
 IR Inten    --      2.7128                 2.1512                 3.3288

                      7                      8                      9
                      A                      A                      A
 Frequencies --    150.3860               175.5315               180.2335
 Red. masses --      2.3710                 4.3739                 5.0770
 Frc consts  --      0.0316                 0.0794                 0.0972
 IR Inten    --      7.5315                 6.6280                 2.5794

                     10                     11                     12
                      A                      A                      A
 Frequencies --    201.2372               219.4218               250.9577
 Red. masses --     18.4817                 5.1615                 2.4801
 Frc consts  --      0.4410                 0.1464                 0.0920
 IR Inten    --      0.0453                 2.6884                 1.0201

                     13                     14                     15
                      A                      A                      A
 Frequencies --    271.1629               300.6923               334.1419
 Red. masses --      1.3882                 3.3110                 4.5036
 Frc consts  --      0.0601                 0.1764                 0.2963
 IR Inten    --      2.3157                 3.1469                 0.8123

                     16                     17                     18
                      A                      A                      A
 Frequencies --    352.3396               371.4147               384.9371
 Red. masses --      3.6559                 2.9749                 3.7455
 Frc consts  --      0.2674                 0.2418                 0.3270
 IR Inten    --      2.0049                 2.1720                 1.0806

                     19                     20                     21
                      A                      A                      A
 Frequencies --    395.3322               415.9651               451.4546
 Red. masses --      3.7537                 4.4029                 3.3206
 Frc consts  --      0.3456                 0.4489                 0.3987
 IR Inten    --      1.8210                 2.5537                 4.2212

                     22                     23                     24
                      A                      A                      A
 Frequencies --    459.8222               490.4625               519.4363
 Red. masses --      6.7144                 5.2279                 3.5992
 Frc consts  --      0.8364                 0.7409                 0.5722
 IR Inten    --      6.2718                24.8534                 8.8274

                     25                     26                     27
                      A                      A                      A
 Frequencies --    538.8323               560.5212               610.6874
 Red. masses --      4.3452                 3.1484                 4.5819
 Frc consts  --      0.7433                 0.5828                 1.0068
 IR Inten    --     11.1615                 6.0926                 9.8897

                     28                     29                     30
                      A                      A                      A
 Frequencies --    634.5771               637.1487               686.8615
 Red. masses --      5.7233                 3.0286                 6.6023
 Frc consts  --      1.3579                 0.7244                 1.8352
 IR Inten    --      5.6169                 5.4359                23.3628

                     31                     32                     33
                      A                      A                      A
 Frequencies --    694.2320               719.8187               741.9373
 Red. masses --      4.0501                 3.4818                 3.7874
 Frc consts  --      1.1501                 1.0629                 1.2283
 IR Inten    --      6.9625                 9.3966                 8.2051

                     34                     35                     36
                      A                      A                      A
 Frequencies --    780.3418               790.8115               834.2400
 Red. masses --      1.4005                 2.6060                 1.9528
 Frc consts  --      0.5025                 0.9602                 0.8007
 IR Inten    --     62.5816                24.6827                 4.9941

                     37                     38                     39
                      A                      A                      A
 Frequencies --    835.8649               839.0243               856.0097
 Red. masses --      2.8341                 2.0668                 2.1293
 Frc consts  --      1.1667                 0.8572                 0.9193
 IR Inten    --      1.2717                47.5558                32.9819

                     40                     41                     42
                      A                      A                      A
 Frequencies --    889.0353               897.1251               904.9717
 Red. masses --      2.3415                 1.3719                 1.4644
 Frc consts  --      1.0904                 0.6506                 0.7066
 IR Inten    --     11.6208                17.8368                19.2466

                     43                     44                     45
                      A                      A                      A
 Frequencies --    929.2273               961.5373               973.9640
 Red. masses --      1.9125                 2.8025                 1.3443
 Frc consts  --      0.9730                 1.5266                 0.7513
 IR Inten    --     16.7399                16.6261                 0.9082

                     46                     47                     48
                      A                      A                      A
 Frequencies --    976.0001              1007.1522              1014.8430
 Red. masses --      1.3619                 1.2856                 2.5683
 Frc consts  --      0.7644                 0.7683                 1.5584
 IR Inten    --      2.1322                 0.4231                21.2629

                     49                     50                     51
                      A                      A                      A
 Frequencies --   1032.8400              1034.7642              1056.4393
 Red. masses --      4.1648                 4.5722                 1.7355
 Frc consts  --      2.6176                 2.8844                 1.1412
 IR Inten    --     46.1258                37.2657                18.9068

                     52                     53                     54
                      A                      A                      A
 Frequencies --   1066.5792              1102.1305              1136.0748
 Red. masses --      2.6536                 1.8402                 1.8876
 Frc consts  --      1.7785                 1.3170                 1.4354
 IR Inten    --      4.8083                 0.0389                 5.7482

                     55                     56                     57
                      A                      A                      A
 Frequencies --   1142.2094              1159.2587              1166.0319
 Red. masses --      1.8056                 1.5756                 1.4346
 Frc consts  --      1.3879                 1.2476                 1.1492
 IR Inten    --     55.1874                 6.8095                18.8964

                     58                     59                     60
                      A                      A                      A
 Frequencies --   1180.3656              1191.5061              1194.9137
 Red. masses --      1.3742                 1.2451                 1.3596
 Frc consts  --      1.1281                 1.0415                 1.1437
 IR Inten    --     11.5846                 3.1859                 3.1254

                     61                     62                     63
                      A                      A                      A
 Frequencies --   1196.8633              1208.4025              1227.6405
 Red. masses --      1.8224                 2.0173                 2.1386
 Frc consts  --      1.5381                 1.7356                 1.8990
 IR Inten    --      4.0617                15.9028                 6.6591

                     64                     65                     66
                      A                      A                      A
 Frequencies --   1246.8953              1272.8511              1281.5325
 Red. masses --      1.3974                 1.3576                 1.5601
 Frc consts  --      1.2801                 1.2959                 1.5096
 IR Inten    --     12.1304                10.9061                 8.6813

                     67                     68                     69
                      A                      A                      A
 Frequencies --   1307.1133              1340.9758              1351.6340
 Red. masses --      2.3369                 2.0946                 3.8714
 Frc consts  --      2.3524                 2.2191                 4.1671
 IR Inten    --     10.3602                 3.6408                 3.4062

                     70                     71                     72
                      A                      A                      A
 Frequencies --   1356.0430              1363.3511              1377.0251
 Red. masses --      2.1012                 1.4078                 1.5519
 Frc consts  --      2.2765                 1.5417                 1.7338
 IR Inten    --      9.9722                 7.8758                25.1798

                     73                     74                     75
                      A                      A                      A
 Frequencies --   1389.8201              1411.6138              1430.7703
 Red. masses --      1.4595                 1.4099                 2.7211
 Frc consts  --      1.6610                 1.6552                 3.2819
 IR Inten    --      0.4013                 3.9058                34.2607

                     76                     77                     78
                      A                      A                      A
 Frequencies --   1459.7083              1469.3941              1482.8756
 Red. masses --      1.1367                 1.1687                 1.3105
 Frc consts  --      1.4270                 1.4867                 1.6978
 IR Inten    --     22.7197                19.6222                50.0679

                     79                     80                     81
                      A                      A                      A
 Frequencies --   1497.9869              1507.7480              1515.6061
 Red. masses --      1.9186                 2.6131                 1.0448
 Frc consts  --      2.5365                 3.4999                 1.4140
 IR Inten    --     25.1515               103.1764                 9.4972

                     82                     83                     84
                      A                      A                      A
 Frequencies --   1523.2353              1536.7606              1542.2072
 Red. masses --      1.1136                 2.1387                 1.0844
 Frc consts  --      1.5223                 2.9759                 1.5196
 IR Inten    --      5.8381                18.9453                70.3748

                     85                     86                     87
                      A                      A                      A
 Frequencies --   1574.2541              1610.9669              1633.0637
 Red. masses --      1.1309                 7.2504                 5.6146
 Frc consts  --      1.6514                11.0862                 8.8222
 IR Inten    --     44.1899                16.4164                 3.4770

                     88                     89                     90
                      A                      A                      A
 Frequencies --   1639.6622              1640.2288              1660.3761
 Red. masses --      1.2071                 4.1935                 5.4424
 Frc consts  --      1.9121                 6.6471                 8.8400
 IR Inten    --     89.5195                21.5192                 3.7287

                     91                     92                     93
                      A                      A                      A
 Frequencies --   3065.8514              3077.0272              3080.5684
 Red. masses --      1.0808                 1.0617                 1.0692
 Frc consts  --      5.9853                 5.9227                 5.9783
 IR Inten    --     15.0306                26.6199                72.2077

                     94                     95                     96
                      A                      A                      A
 Frequencies --   3113.8088              3119.9205              3122.0074
 Red. masses --      1.1015                 1.0873                 1.1005
 Frc consts  --      6.2924                 6.2355                 6.3201
 IR Inten    --     44.6382                23.1709                58.0684

                     97                     98                     99
                      A                      A                      A
 Frequencies --   3126.0144              3197.8118              3209.0085
 Red. masses --      1.0319                 1.0880                 1.0876
 Frc consts  --      5.9411                 6.5550                 6.5988
 IR Inten    --     14.5574                13.9766                 2.7850

                    100                    101                    102
                      A                      A                      A
 Frequencies --   3215.8632              3217.2462              3219.3836
 Red. masses --      1.1086                 1.0925                 1.0891
 Frc consts  --      6.7551                 6.6626                 6.6509
 IR Inten    --      7.1395                44.8811                12.3583

                    103                    104                    105
                      A                      A                      A
 Frequencies --   3229.7153              3235.5105              3237.3154
 Red. masses --      1.0977                 1.0909                 1.1067
 Frc consts  --      6.7464                 6.7284                 6.8338
 IR Inten    --     31.2666                 1.3917                 6.7379

                    106                    107                    108
                      A                      A                      A
 Frequencies --   3240.8545              3397.8928              3449.6430
 Red. masses --      1.0941                 1.0573                 1.0934
 Frc consts  --      6.7709                 7.1922                 7.6660
 IR Inten    --      6.6165               120.7245               182.5590

 - Thermochemistry -
 -------------------
 Temperature   298.150 Kelvin.  Pressure   1.00000 Atm.
 Atom     1 has atomic number  6 and mass  12.00000

 Molecular mass:   306.08163 amu.
 Principal axes and moments of inertia in atomic units:
                           1         2         3
     Eigenvalues --  3324.90325********************
           X            0.99989  -0.00041  -0.01505
           Y           -0.00022   0.99913  -0.04175
           Z            0.01505   0.04175   0.99901
 This molecule is an asymmetric top.
 Rotational symmetry number  1.
 Warning -- assumption of classical behavior for rotation
           may cause significant error
 Rotational temperatures (Kelvin)      0.02605     0.00732     0.00684
 Rotational constants (GHZ):           0.54280     0.15254     0.14247
 Zero-point vibrational energy     835717.1 (Joules/Mol)
                                  199.74119 (Kcal/Mol)
 Warning -- explicit consideration of  27 degrees of freedom as
           vibrations may cause significant error
 Vibrational temperatures:     29.58    38.20    64.16   129.60   145.94
          (Kelvin)            176.86   216.37   252.55   259.32   289.54
                              315.70   361.07   390.14   432.63   480.76
                              506.94   534.38   553.84   568.79   598.48
                              649.54   661.58   705.67   747.35   775.26
                              806.46   878.64   913.01   916.71   988.24
                              998.85  1035.66  1067.48  1122.74  1137.80
                             1200.29  1202.62  1207.17  1231.61  1279.12
                             1290.76  1302.05  1336.95  1383.44  1401.32
                             1404.25  1449.07  1460.13  1486.03  1488.79
                             1519.98  1534.57  1585.72  1634.56  1643.38
                             1667.91  1677.66  1698.28  1714.31  1719.21
                             1722.02  1738.62  1766.30  1794.00  1831.35
                             1843.84  1880.64  1929.37  1944.70  1951.04
                             1961.56  1981.23  1999.64  2031.00  2058.56
                             2100.19  2114.13  2133.53  2155.27  2169.31
                             2180.62  2191.60  2211.06  2218.89  2265.00
                             2317.82  2349.61  2359.11  2359.92  2388.91
                             4411.08  4427.16  4432.25  4480.08  4488.87
                             4491.87  4497.64  4600.94  4617.05  4626.91
                             4628.90  4631.97  4646.84  4655.18  4657.77
                             4662.87  4888.81  4963.27

 Zero-point correction=                           0.318308 (Hartree/Particle)
 Thermal correction to Energy=                    0.335801
 Thermal correction to Enthalpy=                  0.336745
 Thermal correction to Gibbs Free Energy=         0.271282
 Sum of electronic and zero-point Energies=          -1633.355263
 Sum of electronic and thermal Energies=             -1633.337770
 Sum of electronic and thermal Enthalpies=           -1633.336826
 Sum of electronic and thermal Free Energies=        -1633.402289

                     E (Thermal)             CV                S
                      KCal/Mol        Cal/Mol-Kelvin    Cal/Mol-Kelvin
 Total                  210.718             68.860            137.778
 Electronic               0.000              0.000              0.000
 Translational            0.889              2.981             43.053
 Rotational               0.889              2.981             34.565
 Vibrational            208.941             62.899             60.161
 Vibration     1          0.593              1.986              6.579
 Vibration     2          0.593              1.984              6.072
 Vibration     3          0.595              1.980              5.044
 Vibration     4          0.602              1.956              3.658
 Vibration     5          0.604              1.948              3.427
 Vibration     6          0.610              1.930              3.054
 Vibration     7          0.618              1.902              2.667
 Vibration     8          0.627              1.873              2.375
 Vibration     9          0.629              1.867              2.326
 Vibration    10          0.638              1.838              2.122
 Vibration    11          0.647              1.811              1.964
 Vibration    12          0.663              1.761              1.724
 Vibration    13          0.675              1.726              1.589
 Vibration    14          0.693              1.672              1.413
 Vibration    15          0.716              1.607              1.240
 Vibration    16          0.729              1.570              1.156
 Vibration    17          0.743              1.531              1.074
 Vibration    18          0.754              1.502              1.020
 Vibration    19          0.762              1.480              0.980
 Vibration    20          0.779              1.436              0.906
 Vibration    21          0.810              1.358              0.791
 Vibration    22          0.818              1.339              0.767
 Vibration    23          0.846              1.271              0.682
 Vibration    24          0.874              1.207              0.611
 Vibration    25          0.894              1.164              0.568
 Vibration    26          0.916              1.117              0.523
 Vibration    27          0.970              1.009              0.432

                           ! Non-Optimized Parameters !
 Normal termination of Gaussian 16 at Sun Jul 11 17:09:35 2021.

 ----------------------------------------------------------------------
 #p b3lyp/6-31G(d) scrf=(iefpcm,read,solvent=water) geom=allcheck guess
 =read
 ----------------------------------------------------------------------

 Structure from the checkpoint file:  "SET_328_BBB2_conf1.geo_225_285.chk"
 ---------------------------------------
 SET_328_BBB2_conf1.geo_225_285 geometry
 ---------------------------------------
 Charge =  1 Multiplicity = 1

 SCF Done:  E(RB3LYP) =  -1633.67357084     A.U. after    1 cycles
 Normal termination of Gaussian 16 at Sun Jul 11 17:09:54 2021.

 -----------------------------
 #p B3LYP/6-31G* geom=allcheck
 -----------------------------

 Structure from the checkpoint file:  "SET_328_BBB2_conf1.geo_225_285.chk"
 ---------------------------------------
 SET_328_BBB2_conf1.geo_225_285 geometry
 ---------------------------------------
 Charge =  1 Multiplicity = 1

 SCF Done:  E(RB3LYP) =  -1633.57151433     A.U. after   15 cycles

 The electronic state is 1-A.
 Alpha  occ. eigenvalues -- -101.63356-101.62921 -14.63082 -10.41140 -10.40660
 Alpha  occ. eigenvalues --  -10.35097 -10.34841 -10.34293 -10.34088 -10.33361
 Alpha  occ. eigenvalues --  -10.33022 -10.32771 -10.32711 -10.31688 -10.31629
 Alpha  occ. eigenvalues --  -10.31454 -10.31131 -10.30243 -10.29901 -10.29736
 Alpha  occ. eigenvalues --   -9.54954  -9.54514  -7.31385  -7.30951  -7.30376
 Alpha  occ. eigenvalues --   -7.30321  -7.29935  -7.29874  -1.17957  -1.00960
 Alpha  occ. eigenvalues --   -0.99710  -0.96021  -0.94339  -0.93633  -0.90835
 Alpha  occ. eigenvalues --   -0.89135  -0.88005  -0.85761  -0.84135  -0.82658
 Alpha  occ. eigenvalues --   -0.78680  -0.77433  -0.74888  -0.73556  -0.71927
 Alpha  occ. eigenvalues --   -0.70597  -0.68399  -0.67512  -0.65030  -0.63662
 Alpha  occ. eigenvalues --   -0.61307  -0.60864  -0.59758  -0.59223  -0.58626
 Alpha  occ. eigenvalues --   -0.58127  -0.57151  -0.56010  -0.55640  -0.54028
 Alpha  occ. eigenvalues --   -0.53482  -0.52928  -0.52576  -0.51545  -0.50339
 Alpha  occ. eigenvalues --   -0.49509  -0.49184  -0.48609  -0.47183  -0.46182
 Alpha  occ. eigenvalues --   -0.45887  -0.44844  -0.42410  -0.41578  -0.40393
 Alpha  occ. eigenvalues --   -0.38524  -0.38322  -0.37435  -0.34706  -0.33065
 Alpha virt. eigenvalues --   -0.15339  -0.13810  -0.12727  -0.11209  -0.10860
 Alpha virt. eigenvalues --   -0.08531  -0.07626  -0.05518  -0.04736  -0.03268
 Alpha virt. eigenvalues --   -0.02427  -0.02077  -0.01420  -0.00873   0.00569

 Mulliken charges:
               1
     1  C   -0.358255
     2  H    0.240498
     3  H    0.228871
     4  H    0.226221
     5  N   -0.600342
     6  H    0.408339
     7  C   -0.111227
     8  C    0.089945
     9  C    0.101144
    10  C   -0.164607
    11  C   -0.117245
    12  C   -0.123664
    13  C   -0.198943
    14  H    0.145340
    15  H    0.172487
    16  H    0.177500
    17  H    0.168992
    18  H    0.206592
    19  C   -0.312173
    20  H    0.162268
    21  H    0.210945
    22  C   -0.292906
    23  H    0.124462
    24  H    0.194290
    25  C   -0.253540
    26  H    0.169975
    27  C    0.165610
    28  C   -0.185273
    29  H    0.155581
    30  C   -0.077251
    31  Cl   0.037813
    32  C   -0.076280
    33  Cl   0.050649
    34  C   -0.122021
    35  H    0.183390
    36  C   -0.179843
    37  H    0.147922
    38  H    0.404737
 Sum of Mulliken charges =   1.00000

 Dipole moment (field-independent basis, Debye):
    X=            -17.5410    Y=             -5.1013    Z=              0.4878  Tot=             18.2742
 Quadrupole moment (field-independent basis, Debye-Ang):
   XX=            -53.5990   YY=           -106.8974   ZZ=           -116.8120
   XY=             11.6110   XZ=            -17.2874   YZ=             -3.8599

 Normal termination of Gaussian 16 at Sun Jul 11 17:11:24 2021.
 Gaussian 16:  ES64L-G16RevB.01 20-Dec-2017

 --------------------------------------------------------
 #p mp2/aug-cc-pVDZ scf=tight maxdisk=180GB geom=allcheck
 --------------------------------------------------------

 Structure from the checkpoint file:  "SET_328_BBB2_conf1.geo_225_285.chk"
 ---------------------------------------
 SET_328_BBB2_conf1.geo_225_285 geometry
 ---------------------------------------
 Charge =  1 Multiplicity = 1

                         Standard orientation:
 ---------------------------------------------------------------------
 Center     Atomic      Atomic             Coordinates (Angstroms)
 Number     Number       Type             X           Y           Z
 ---------------------------------------------------------------------
      1          6           0       -5.337475   -0.591009    0.960115
      2          1           0       -5.312019    0.339077    0.398636
      3          1           0       -5.378566   -0.392231    2.029654
      4          1           0       -6.191770   -1.193547    0.654431
      5          7           0       -4.096582   -1.369346    0.669635
      6          1           0       -4.077329   -1.588844   -0.337715
      7          6           0       -2.774211   -0.706394    1.078524
      8          6           0       -2.454885    0.431429    0.127349
      9          6           0       -1.535098    0.264058   -0.924318
     10          6           0       -1.331823    1.328584   -1.815088
     11          6           0       -1.997206    2.541849   -1.664064
     12          6           0       -2.872216    2.722270   -0.590134
     13          6           0       -3.091410    1.672416    0.296331
     14          1           0       -3.758419    1.817202    1.139648
     15          1           0       -3.374939    3.671740   -0.441847
     16          1           0       -1.822412    3.347118   -2.369806
     17          1           0       -0.627937    1.200265   -2.632227
     18          1           0       -2.970718   -0.321841    2.081985
     19          6           0       -1.673985   -1.769231    1.123989
     20          1           0       -2.000420   -2.633787    1.710804
     21          1           0       -0.827959   -1.335349    1.666767
     22          6           0       -1.233759   -2.193649   -0.277709
     23          1           0       -2.067102   -2.653672   -0.818404
     24          1           0       -0.459825   -2.961764   -0.203769
     25          6           0       -0.696290   -0.997090   -1.100748
     26          1           0       -0.736576   -1.283581   -2.156961
     27          6           0        0.779816   -0.740140   -0.787434
     28          6           0        1.186241    0.183940    0.179184
     29          1           0        0.455373    0.790307    0.699417
     30          6           0        2.537633    0.361106    0.475395
     31         17           0        2.979122    1.533900    1.699143
     32          6           0        3.508719   -0.381945   -0.200718
     33         17           0        5.214829   -0.180903    0.136103
     34          6           0        3.114545   -1.300254   -1.174364
     35          1           0        3.870155   -1.867308   -1.704410
     36          6           0        1.764807   -1.473971   -1.461750
     37          1           0        1.473334   -2.187495   -2.224722
     38          1           0       -4.174377   -2.273629    1.154536
 ---------------------------------------------------------------------

 SCF Done:  E(RHF) =  -1627.57233661     A.U. after   17 cycles
