 Gaussian 16, Revision B.01,

 -----------------------------------------------------------
 #p b3lyp/6-31G(d) opt freq scrf=(iefpcm,read,solvent=water)
 -----------------------------------------------------------

 ----------------------------------------
 SET_328_BBB87_conf1.geo_285_285 geometry
 ----------------------------------------
 Symbolic Z-matrix:
 Charge =  1 Multiplicity = 1

 SCF Done:  E(RB3LYP) =  -703.483585170     A.U. after   13 cycles
 SCF Done:  E(RB3LYP) =  -703.505732039     A.U. after   12 cycles
 SCF Done:  E(RB3LYP) =  -703.508143118     A.U. after   11 cycles
 SCF Done:  E(RB3LYP) =  -703.508530099     A.U. after   11 cycles
 SCF Done:  E(RB3LYP) =  -703.508781005     A.U. after   11 cycles
 SCF Done:  E(RB3LYP) =  -703.508860531     A.U. after   10 cycles
 SCF Done:  E(RB3LYP) =  -703.509022283     A.U. after   11 cycles
 SCF Done:  E(RB3LYP) =  -703.509231962     A.U. after   13 cycles
 SCF Done:  E(RB3LYP) =  -703.509493251     A.U. after   10 cycles
 SCF Done:  E(RB3LYP) =  -703.509637736     A.U. after   11 cycles
 SCF Done:  E(RB3LYP) =  -703.512347613     A.U. after   11 cycles
 SCF Done:  E(RB3LYP) =  -703.512368495     A.U. after    9 cycles
 SCF Done:  E(RB3LYP) =  -703.512374770     A.U. after    9 cycles
 SCF Done:  E(RB3LYP) =  -703.512380190     A.U. after    8 cycles
 SCF Done:  E(RB3LYP) =  -703.512378733     A.U. after    8 cycles
 SCF Done:  E(RB3LYP) =  -703.512379009     A.U. after    7 cycles
 Optimization completed.
    -- Stationary point found.
 Normal termination of Gaussian 16 at Sun Jul 11 16:27:01 2021.

 --------------------------------------------------------------------
 #P Geom=AllCheck Guess=TCheck SCRF=Check GenChk RB3LYP/6-31G(d) Freq
 --------------------------------------------------------------------

 Structure from the checkpoint file:  "SET_328_BBB87_conf1.geo_285_285.chk"
 ----------------------------------------
 SET_328_BBB87_conf1.geo_285_285 geometry
 ----------------------------------------
 Charge =  1 Multiplicity = 1

 SCF Done:  E(RB3LYP) =  -703.512379009     A.U. after    1 cycles

  Exact polarizability: 127.185   2.033 114.327  -4.339   1.198  61.328
 Approx polarizability: 145.427   6.916 140.754  -6.205   1.283  70.864

                      1                      2                      3
                      A                      A                      A
 Frequencies --     50.3972               182.3305               185.2300
 Red. masses --      4.0905                 2.8180                 3.2744
 Frc consts  --      0.0061                 0.0552                 0.0662
 IR Inten    --     13.5326                 0.9610                56.6804

                      4                      5                      6
                      A                      A                      A
 Frequencies --    268.7188               297.8482               385.3931
 Red. masses --      4.3722                 2.5111                 1.0603
 Frc consts  --      0.1860                 0.1313                 0.0928
 IR Inten    --     36.4275                28.7088                 2.8094

                      7                      8                      9
                      A                      A                      A
 Frequencies --    430.9742               507.8602               583.3624
 Red. masses --      2.4560                 4.4538                 5.0087
 Frc consts  --      0.2688                 0.6768                 1.0043
 IR Inten    --      4.0898                 3.6767                 3.4929

                     10                     11                     12
                      A                      A                      A
 Frequencies --    622.5369               703.0953               742.8909
 Red. masses --      4.8168                 2.9493                 1.2977
 Frc consts  --      1.0999                 0.8590                 0.4220
 IR Inten    --     14.3445                 9.5496                47.1817

                     13                     14                     15
                      A                      A                      A
 Frequencies --    766.1351               858.6579               887.2761
 Red. masses --      7.6896                 2.4693                 3.5895
 Frc consts  --      2.6593                 1.0727                 1.6649
 IR Inten    --     10.0031                 7.0182                30.4521

                     16                     17                     18
                      A                      A                      A
 Frequencies --    902.5753               904.0369               952.2203
 Red. masses --      1.4630                 1.5557                 1.3978
 Frc consts  --      0.7022                 0.7491                 0.7467
 IR Inten    --     24.5372                35.2633                15.0736

                     19                     20                     21
                      A                      A                      A
 Frequencies --   1031.9881              1086.7389              1101.0544
 Red. masses --      2.9886                 1.6067                 1.3123
 Frc consts  --      1.8753                 1.1180                 0.9374
 IR Inten    --      8.8723               157.6248                50.1964

                     22                     23                     24
                      A                      A                      A
 Frequencies --   1142.1065              1157.5706              1213.2302
 Red. masses --      1.4802                 2.3621                 1.9371
 Frc consts  --      1.1376                 1.8649                 1.6799
 IR Inten    --     21.6251                50.6923                 8.6021

                     25                     26                     27
                      A                      A                      A
 Frequencies --   1285.4670              1351.2990              1361.6257
 Red. masses --      1.2485                 1.9122                 1.3316
 Frc consts  --      1.2156                 2.0572                 1.4546
 IR Inten    --     36.7463                 0.7229                49.9023

                     28                     29                     30
                      A                      A                      A
 Frequencies --   1396.4700              1428.5745              1476.2950
 Red. masses --      1.5122                 1.3825                 1.2464
 Frc consts  --      1.7374                 1.6623                 1.6006
 IR Inten    --     26.8726                19.6727                34.0786

                     31                     32                     33
                      A                      A                      A
 Frequencies --   1498.3348              1518.5566              1519.6462
 Red. masses --      3.6734                 1.1141                 1.1701
 Frc consts  --      4.8589                 1.5137                 1.5920
 IR Inten    --     18.3382                46.5947               304.6765

                     34                     35                     36
                      A                      A                      A
 Frequencies --   1566.0821              1632.7239              1679.5572
 Red. masses --      5.2384                 1.0357                 1.0450
 Frc consts  --      7.5698                 1.6267                 1.7368
 IR Inten    --     35.0805                30.0134                78.8871

                     37                     38                     39
                      A                      A                      A
 Frequencies --   3072.3543              3136.0612              3144.7844
 Red. masses --      1.0687                 1.0847                 1.0700
 Frc consts  --      5.9438                 6.2855                 6.2349
 IR Inten    --     11.2581                 8.3135                57.5942

                     40                     41                     42
                      A                      A                      A
 Frequencies --   3180.6452              3203.6240              3258.9576
 Red. masses --      1.0717                 1.1060                 1.0924
 Frc consts  --      6.3876                 6.6881                 6.8360
 IR Inten    --    480.3748                15.1530                 6.3288

                     43                     44                     45
                      A                      A                      A
 Frequencies --   3310.4301              3389.1782              3479.7042
 Red. masses --      1.0983                 1.0685                 1.0860
 Frc consts  --      7.0918                 7.2314                 7.7477
 IR Inten    --      3.1426               220.2477               240.1092

 - Thermochemistry -
 -------------------
 Temperature   298.150 Kelvin.  Pressure   1.00000 Atm.
 Atom     1 has atomic number  7 and mass  14.00307

 Molecular mass:   129.04865 amu.
 Principal axes and moments of inertia in atomic units:
                           1         2         3
     Eigenvalues --   484.617011543.685701959.97524
           X            0.99983  -0.01820  -0.00067
           Y            0.01821   0.99983   0.00221
           Z            0.00063  -0.00222   1.00000
 This molecule is an asymmetric top.
 Rotational symmetry number  1.
 Warning -- assumption of classical behavior for rotation
           may cause significant error
 Rotational temperatures (Kelvin)      0.17873     0.05611     0.04419
 Rotational constants (GHZ):           3.72406     1.16911     0.92080
 Zero-point vibrational energy     381935.3 (Joules/Mol)
                                   91.28473 (Kcal/Mol)
 Warning -- explicit consideration of   9 degrees of freedom as
           vibrations may cause significant error
 Vibrational temperatures:     72.51   262.33   266.50   386.63   428.54
          (Kelvin)            554.49   620.08   730.70   839.33   895.69
                             1011.60  1068.85  1102.30  1235.42  1276.59
                             1298.60  1300.71  1370.03  1484.80  1563.57
                             1584.17  1643.24  1665.49  1745.57  1849.50
                             1944.22  1959.08  2009.21  2055.40  2124.06
                             2155.77  2184.86  2186.43  2253.24  2349.13
                             2416.51  4420.43  4512.09  4524.64  4576.24
                             4609.30  4688.91  4762.97  4876.27  5006.52

 Zero-point correction=                           0.145471 (Hartree/Particle)
 Thermal correction to Energy=                    0.153115
 Thermal correction to Enthalpy=                  0.154059
 Thermal correction to Gibbs Free Energy=         0.112678
 Sum of electronic and zero-point Energies=           -703.366908
 Sum of electronic and thermal Energies=              -703.359264
 Sum of electronic and thermal Enthalpies=            -703.358320
 Sum of electronic and thermal Free Energies=         -703.399701

                     E (Thermal)             CV                S
                      KCal/Mol        Cal/Mol-Kelvin    Cal/Mol-Kelvin
 Total                   96.081             28.678             87.094
 Electronic               0.000              0.000              0.000
 Translational            0.889              2.981             40.478
 Rotational               0.889              2.981             28.774
 Vibrational             94.304             22.717             17.842
 Vibration     1          0.595              1.977              4.802
 Vibration     2          0.630              1.864              2.304
 Vibration     3          0.631              1.860              2.275
 Vibration     4          0.673              1.731              1.604
 Vibration     5          0.691              1.678              1.429
 Vibration     6          0.754              1.501              1.018
 Vibration     7          0.792              1.403              0.855
 Vibration     8          0.863              1.233              0.639
 Vibration     9          0.940              1.067              0.479

 Optimization completed.
    -- Stationary point found.
 Normal termination of Gaussian 16 at Sun Jul 11 16:28:36 2021.

 ----------------------------------------------------------------------
 #p b3lyp/6-31G(d) scrf=(iefpcm,read,solvent=water) geom=allcheck guess
 =read
 ----------------------------------------------------------------------

 Structure from the checkpoint file:  "SET_328_BBB87_conf1.geo_285_285.chk"
 ----------------------------------------
 SET_328_BBB87_conf1.geo_285_285 geometry
 ----------------------------------------
 Charge =  1 Multiplicity = 1

 SCF Done:  E(RB3LYP) =  -703.512379009     A.U. after    1 cycles
 Normal termination of Gaussian 16 at Sun Jul 11 16:28:39 2021.

 -----------------------------
 #p B3LYP/6-31G* geom=allcheck
 -----------------------------

 Structure from the checkpoint file:  "SET_328_BBB87_conf1.geo_285_285.chk"
 ----------------------------------------
 SET_328_BBB87_conf1.geo_285_285 geometry
 ----------------------------------------
 Charge =  1 Multiplicity = 1

 SCF Done:  E(RB3LYP) =  -703.410305629     A.U. after   15 cycles
 Normal termination of Gaussian 16 at Sun Jul 11 16:28:49 2021.
 Gaussian 16:  ES64L-G16RevB.01 20-Dec-2017

 --------------------------------------------------------
 #p mp2/aug-cc-pVDZ scf=tight maxdisk=180GB geom=allcheck
 --------------------------------------------------------

 Structure from the checkpoint file:  "SET_328_BBB87_conf1.geo_285_285.chk"
 ----------------------------------------
 SET_328_BBB87_conf1.geo_285_285 geometry
 ----------------------------------------
 Charge =  1 Multiplicity = 1

                         Standard orientation:
 ---------------------------------------------------------------------
 Center     Atomic      Atomic             Coordinates (Angstroms)
 Number     Number       Type             X           Y           Z
 ---------------------------------------------------------------------
      1          7           0        2.703823    0.813362   -0.135271
      2          1           0        3.457226    1.269996    0.395940
      3          1           0        1.856931    1.420343   -0.127746
      4          6           0        2.346487   -0.518127    0.452039
      5          1           0        2.141395   -0.349585    1.508319
      6          1           0        3.218094   -1.163000    0.357993
      7          6           0        1.140343   -1.127971   -0.258004
      8          1           0        0.976873   -2.124052    0.158106
      9          1           0        1.368036   -1.268899   -1.321669
     10          6           0       -0.102988   -0.293778   -0.112778
     11          7           0       -0.096552    1.014796   -0.083368
     12          6           0       -1.369964    1.528812    0.036753
     13          1           0       -1.506955    2.601554    0.075803
     14          6           0       -2.370268    0.606017    0.096860
     15          1           0       -3.432888    0.766145    0.189203
     16         16           0       -1.700873   -0.990154    0.007604
     17          1           0        3.022695    0.723135   -1.116360
 ---------------------------------------------------------------------

 SCF Done:  E(RHF) =  -700.831432863     A.U. after   15 cycles
 E2 =    -0.1193228275D+01 EUMP2 =    -0.70202466113777D+03

 The electronic state is 1-A.
 Alpha  occ. eigenvalues --  -92.13042 -15.87392 -15.72822 -11.47939 -11.46836
 Alpha  occ. eigenvalues --  -11.42743 -11.40553 -11.40084  -9.13228  -6.81367
 Alpha  occ. eigenvalues --   -6.81278  -6.81104  -1.48986  -1.42737  -1.24139
 Alpha  occ. eigenvalues --   -1.20020  -1.13732  -1.05269  -0.95507  -0.94446
 Alpha  occ. eigenvalues --   -0.92877  -0.87852  -0.83831  -0.82009  -0.77738
 Alpha  occ. eigenvalues --   -0.74838  -0.73099  -0.70079  -0.68451  -0.67763
 Alpha  occ. eigenvalues --   -0.63360  -0.57900  -0.52586  -0.46796
 Alpha virt. eigenvalues --   -0.10025  -0.07244  -0.06866  -0.05754  -0.04010
 Alpha virt. eigenvalues --   -0.03772  -0.03586  -0.03374  -0.02584  -0.01636
 Alpha virt. eigenvalues --   -0.01327  -0.00058   0.00024   0.01164   0.01692

 Mulliken charges:
               1
     1  N   -0.397831
     2  H    0.173286
     3  H    0.254631
     4  C    0.907518
     5  H   -0.143018
     6  H   -0.102223
     7  C    0.170078
     8  H    0.042857
     9  H    0.028559
    10  C   -0.127569
    11  N   -0.668035
    12  C    0.678071
    13  H   -0.258595
    14  C    0.141777
    15  H   -0.333557
    16  S    0.382854
    17  H    0.251197
 Sum of Mulliken charges =   1.00000

 Dipole moment (field-independent basis, Debye):
    X=              8.7016    Y=              1.4229    Z=             -0.2252  Tot=              8.8200
 Quadrupole moment (field-independent basis, Debye-Ang):
   XX=            -11.1516   YY=            -44.5241   ZZ=            -53.2053
   XY=              3.0690   XZ=             -1.7174   YZ=             -0.0086

 Normal termination of Gaussian 16 at Sun Jul 11 16:30:06 2021.
