 Gaussian 16, Revision B.01,

 -----------------------------------------------------------
 #p b3lyp/6-31G(d) opt freq scrf=(iefpcm,read,solvent=water)
 -----------------------------------------------------------

 ----------------------------------------
 SET_328_BBB65_conf1.geo_060_150 geometry
 ----------------------------------------
 Symbolic Z-matrix:
 Charge =  1 Multiplicity = 1

 SCF Done:  E(RB3LYP) =  -718.015333697     A.U. after   12 cycles
 SCF Done:  E(RB3LYP) =  -718.056001058     A.U. after   10 cycles
 SCF Done:  E(RB3LYP) =  -718.085470011     A.U. after   11 cycles
 SCF Done:  E(RB3LYP) =  -718.088971217     A.U. after   10 cycles
 SCF Done:  E(RB3LYP) =  -718.091032649     A.U. after   10 cycles
 SCF Done:  E(RB3LYP) =  -718.090971734     A.U. after    9 cycles
 SCF Done:  E(RB3LYP) =  -718.091114026     A.U. after   10 cycles
 SCF Done:  E(RB3LYP) =  -718.091249525     A.U. after    9 cycles
 SCF Done:  E(RB3LYP) =  -718.091331828     A.U. after    9 cycles
 SCF Done:  E(RB3LYP) =  -718.091318608     A.U. after    8 cycles
 SCF Done:  E(RB3LYP) =  -718.091333904     A.U. after    7 cycles
 SCF Done:  E(RB3LYP) =  -718.091333768     A.U. after    7 cycles
 SCF Done:  E(RB3LYP) =  -718.091334635     A.U. after    7 cycles
 SCF Done:  E(RB3LYP) =  -718.091338973     A.U. after    7 cycles
 SCF Done:  E(RB3LYP) =  -718.091341960     A.U. after    7 cycles
 SCF Done:  E(RB3LYP) =  -718.091343912     A.U. after    6 cycles
 Optimization completed.
    -- Stationary point found.
 Normal termination of Gaussian 16 at Sun Jul 11 16:43:45 2021.

 --------------------------------------------------------------------
 #P Geom=AllCheck Guess=TCheck SCRF=Check GenChk RB3LYP/6-31G(d) Freq
 --------------------------------------------------------------------

 Structure from the checkpoint file:  "SET_328_BBB65_conf1.geo_060_150.chk"
 ----------------------------------------
 SET_328_BBB65_conf1.geo_060_150 geometry
 ----------------------------------------
 Charge =  1 Multiplicity = 1

 SCF Done:  E(RB3LYP) =  -718.091343912     A.U. after    1 cycles

  Exact polarizability: 269.009  14.637 196.645  -1.514   5.776 240.203
 Approx polarizability: 282.476  15.734 201.838  -1.776   7.520 269.989

                      1                      2                      3
                      A                      A                      A
 Frequencies --     26.2315                61.8441                71.7148
 Red. masses --      3.4263                 3.8386                 3.0366
 Frc consts  --      0.0014                 0.0087                 0.0092
 IR Inten    --      0.0907                 0.3546                 0.2542

                      4                      5                      6
                      A                      A                      A
 Frequencies --     89.4558               136.6345               172.5257
 Red. masses --      3.2197                 2.7626                 3.4682
 Frc consts  --      0.0152                 0.0304                 0.0608
 IR Inten    --      0.7876                 3.6232                 1.1800

                      7                      8                      9
                      A                      A                      A
 Frequencies --    180.6595               232.5302               241.2158
 Red. masses --      2.8946                 1.9880                 3.5225
 Frc consts  --      0.0557                 0.0633                 0.1208
 IR Inten    --      0.1816                 0.1564                 0.5506

                     10                     11                     12
                      A                      A                      A
 Frequencies --    284.5619               303.4137               306.1674
 Red. masses --      2.8352                 3.4189                 3.9621
 Frc consts  --      0.1353                 0.1854                 0.2188
 IR Inten    --      0.1618                 4.6187                 0.9926

                     13                     14                     15
                      A                      A                      A
 Frequencies --    323.2996               341.5013               403.0522
 Red. masses --      2.1464                 1.8604                 1.8797
 Frc consts  --      0.1322                 0.1278                 0.1799
 IR Inten    --      0.1269                 1.5790                 0.4773

                     16                     17                     18
                      A                      A                      A
 Frequencies --    416.9784               418.7839               431.0075
 Red. masses --      2.9247                 2.9464                 2.9389
 Frc consts  --      0.2996                 0.3045                 0.3217
 IR Inten    --      0.4734                 3.4687                 0.1887

                     19                     20                     21
                      A                      A                      A
 Frequencies --    444.1788               470.8611               500.5317
 Red. masses --      2.1137                 3.0279                 3.1909
 Frc consts  --      0.2457                 0.3955                 0.4710
 IR Inten    --      0.1094                 1.4043                 0.6097

                     22                     23                     24
                      A                      A                      A
 Frequencies --    511.4247               546.9109               577.9207
 Red. masses --      2.1768                 1.8235                 3.2725
 Frc consts  --      0.3355                 0.3214                 0.6440
 IR Inten    --      1.6388                 3.8000                11.3183

                     25                     26                     27
                      A                      A                      A
 Frequencies --    633.2945               648.3702               715.0910
 Red. masses --      6.3201                 3.1708                 2.1405
 Frc consts  --      1.4934                 0.7854                 0.6449
 IR Inten    --      0.0059                 9.2228                33.2415

                     28                     29                     30
                      A                      A                      A
 Frequencies --    731.1204               778.3188               797.9855
 Red. masses --      2.1264                 2.2069                 1.5383
 Frc consts  --      0.6697                 0.7877                 0.5771
 IR Inten    --     24.8360                36.0074                 1.3625

                     31                     32                     33
                      A                      A                      A
 Frequencies --    801.2183               822.2821               837.7817
 Red. masses --      1.9188                 1.4888                 2.9900
 Frc consts  --      0.7257                 0.5931                 1.2365
 IR Inten    --      7.8302                 0.5120                17.1196

                     34                     35                     36
                      A                      A                      A
 Frequencies --    852.2353               867.7515               875.9526
 Red. masses --      2.9465                 1.2486                 1.8843
 Frc consts  --      1.2609                 0.5540                 0.8518
 IR Inten    --      7.1276                 0.4480                27.2372

                     37                     38                     39
                      A                      A                      A
 Frequencies --    887.8305               904.9099               916.3344
 Red. masses --      2.3629                 1.8680                 2.0944
 Frc consts  --      1.0974                 0.9012                 1.0361
 IR Inten    --     20.8875                38.5001                 5.2367

                     40                     41                     42
                      A                      A                      A
 Frequencies --    929.6708               933.9493               944.5835
 Red. masses --      2.3143                 2.0101                 1.5229
 Frc consts  --      1.1785                 1.0330                 0.8006
 IR Inten    --      0.8832                 8.9436                 1.0808

                     43                     44                     45
                      A                      A                      A
 Frequencies --    957.9132               969.5283               988.7804
 Red. masses --      1.5049                 1.3528                 1.3554
 Frc consts  --      0.8136                 0.7492                 0.7808
 IR Inten    --      0.7848                17.9274                 0.0888

                     46                     47                     48
                      A                      A                      A
 Frequencies --   1014.7897              1016.8563              1025.6812
 Red. masses --      1.2745                 5.5706                 2.7144
 Frc consts  --      0.7733                 3.3937                 1.6825
 IR Inten    --      0.1794                 4.7435                17.6016

                     49                     50                     51
                      A                      A                      A
 Frequencies --   1034.3984              1044.9738              1057.2507
 Red. masses --      2.2849                 2.2316                 2.0278
 Frc consts  --      1.4405                 1.4357                 1.3355
 IR Inten    --      3.9075                 6.8425                 6.6824

                     52                     53                     54
                      A                      A                      A
 Frequencies --   1061.6282              1069.4384              1086.3172
 Red. masses --      2.3368                 2.2578                 1.5328
 Frc consts  --      1.5518                 1.5214                 1.0657
 IR Inten    --     10.7925                 0.5119                 0.1827

                     55                     56                     57
                      A                      A                      A
 Frequencies --   1095.6054              1104.5910              1121.9463
 Red. masses --      1.7768                 1.8185                 1.5209
 Frc consts  --      1.2566                 1.3073                 1.1280
 IR Inten    --      4.1170                 0.6006                 9.9204

                     58                     59                     60
                      A                      A                      A
 Frequencies --   1154.4271              1159.6090              1172.4673
 Red. masses --      1.1303                 2.1065                 1.4691
 Frc consts  --      0.8875                 1.6689                 1.1899
 IR Inten    --     12.3497                22.4497                 1.3079

                     61                     62                     63
                      A                      A                      A
 Frequencies --   1183.2842              1192.2580              1221.4876
 Red. masses --      2.3790                 1.0869                 1.4339
 Frc consts  --      1.9625                 0.9103                 1.2605
 IR Inten    --      7.8338                 0.0017                 3.9519

                     64                     65                     66
                      A                      A                      A
 Frequencies --   1222.4160              1233.4985              1250.6692
 Red. masses --      1.7145                 1.5866                 1.8763
 Frc consts  --      1.5095                 1.4223                 1.7292
 IR Inten    --     10.1298                26.4405                 4.7632

                     67                     68                     69
                      A                      A                      A
 Frequencies --   1281.9887              1304.5115              1307.0179
 Red. masses --      1.3213                 1.2790                 1.2110
 Frc consts  --      1.2794                 1.2824                 1.2189
 IR Inten    --     16.2812                 5.9537                 0.8486

                     70                     71                     72
                      A                      A                      A
 Frequencies --   1310.5392              1316.3427              1339.9340
 Red. masses --      1.2464                 1.2280                 1.2913
 Frc consts  --      1.2612                 1.2537                 1.3659
 IR Inten    --      2.8906                 5.4929                10.1416

                     73                     74                     75
                      A                      A                      A
 Frequencies --   1346.9642              1358.0988              1370.5759
 Red. masses --      3.5243                 1.4413                 1.3023
 Frc consts  --      3.7674                 1.5663                 1.4414
 IR Inten    --      0.2540                 0.7940                 0.1091

                     76                     77                     78
                      A                      A                      A
 Frequencies --   1379.1126              1382.7050              1393.7571
 Red. masses --      1.4518                 1.3805                 1.4948
 Frc consts  --      1.6269                 1.5550                 1.7109
 IR Inten    --      1.9514                 4.3410                 3.0314

                     79                     80                     81
                      A                      A                      A
 Frequencies --   1397.7877              1404.3963              1409.7525
 Red. masses --      1.4480                 1.4130                 1.4252
 Frc consts  --      1.6668                 1.6419                 1.6688
 IR Inten    --      4.0656                 0.9017                 4.3659

                     82                     83                     84
                      A                      A                      A
 Frequencies --   1412.5086              1416.7102              1426.3039
 Red. masses --      1.4255                 1.4814                 1.2948
 Frc consts  --      1.6757                 1.7518                 1.5520
 IR Inten    --      2.9222                 5.7836                 1.2688

                     85                     86                     87
                      A                      A                      A
 Frequencies --   1478.7318              1491.4921              1493.8794
 Red. masses --      1.1473                 1.4310                 1.5496
 Frc consts  --      1.4781                 1.8756                 2.0375
 IR Inten    --     49.5610                 8.9483                25.6441

                     88                     89                     90
                      A                      A                      A
 Frequencies --   1503.1308              1507.3750              1510.4227
 Red. masses --      1.0890                 1.0989                 1.0831
 Frc consts  --      1.4497                 1.4711                 1.4558
 IR Inten    --      9.9723                 7.2697                10.6719

                     91                     92                     93
                      A                      A                      A
 Frequencies --   1520.4273              1523.0255              1526.0543
 Red. masses --      1.0991                 1.0917                 1.1000
 Frc consts  --      1.4969                 1.4920                 1.5094
 IR Inten    --     31.2925                 1.4794                 4.7974

                     94                     95                     96
                      A                      A                      A
 Frequencies --   1528.2771              1538.3377              1549.8659
 Red. masses --      1.0966                 1.0887                 2.0423
 Frc consts  --      1.5090                 1.5179                 2.8904
 IR Inten    --     40.5725                 8.3400                 8.5334

                     97                     98                     99
                      A                      A                      A
 Frequencies --   1573.0460              1630.6655              1641.5040
 Red. masses --      1.0881                 1.0942                 5.1639
 Frc consts  --      1.5863                 1.7142                 8.1981
 IR Inten    --      4.5386                62.5326                 2.2147

                    100                    101                    102
                      A                      A                      A
 Frequencies --   1662.5059              3044.3005              3050.7021
 Red. masses --      5.4330                 1.0686                 1.0658
 Frc consts  --      8.8474                 5.8348                 5.8443
 IR Inten    --      0.3390                30.5885                63.4882

                    103                    104                    105
                      A                      A                      A
 Frequencies --   3056.8169              3060.2644              3064.3589
 Red. masses --      1.0677                 1.0623                 1.0626
 Frc consts  --      5.8784                 5.8619                 5.8787
 IR Inten    --     32.3618                51.6212                40.4362

                    106                    107                    108
                      A                      A                      A
 Frequencies --   3075.0151              3079.5940              3083.8901
 Red. masses --      1.0715                 1.0612                 1.0747
 Frc consts  --      5.9697                 5.9299                 6.0222
 IR Inten    --      4.7620                32.4863                34.9748

                    109                    110                    111
                      A                      A                      A
 Frequencies --   3095.1529              3097.3174              3101.7861
 Red. masses --      1.0964                 1.0911                 1.1005
 Frc consts  --      6.1883                 6.1673                 6.2382
 IR Inten    --     54.9416                53.0509               143.4518

                    112                    113                    114
                      A                      A                      A
 Frequencies --   3107.4553              3112.7852              3120.6380
 Red. masses --      1.0973                 1.0997                 1.1010
 Frc consts  --      6.2432                 6.2779                 6.3171
 IR Inten    --     34.8929                50.6968                39.7084

                    115                    116                    117
                      A                      A                      A
 Frequencies --   3136.2843              3137.2238              3144.7403
 Red. masses --      1.0849                 1.0700                 1.0708
 Frc consts  --      6.2871                 6.2046                 6.2394
 IR Inten    --     10.8288                23.7855                45.4438

                    118                    119                    120
                      A                      A                      A
 Frequencies --   3152.1741              3205.8625              3206.7361
 Red. masses --      1.0923                 1.1039                 1.0867
 Frc consts  --      6.3945                 6.6848                 6.5842
 IR Inten    --     45.7199                18.5126                 1.0818

                    121                    122                    123
                      A                      A                      A
 Frequencies --   3213.7933              3215.8525              3226.9741
 Red. masses --      1.0897                 1.1039                 1.0939
 Frc consts  --      6.6313                 6.7262                 6.7114
 IR Inten    --     15.7007                17.2263                44.3735

                    124                    125                    126
                      A                      A                      A
 Frequencies --   3237.0303              3243.1922              3420.6896
 Red. masses --      1.0929                 1.0920                 1.0756
 Frc consts  --      6.7469                 6.7675                 7.4156
 IR Inten    --     32.9818                14.7311               101.3913

 - Thermochemistry -
 -------------------
 Temperature   298.150 Kelvin.  Pressure   1.00000 Atm.
 Atom     1 has atomic number  6 and mass  12.00000

 Molecular mass:   244.20652 amu.
 Principal axes and moments of inertia in atomic units:
                           1         2         3
     Eigenvalues --  3846.814894689.583616483.69498
           X            0.99985   0.01737  -0.00087
           Y           -0.01736   0.99985   0.00099
           Z            0.00089  -0.00097   1.00000
 This molecule is an asymmetric top.
 Rotational symmetry number  1.
 Warning -- assumption of classical behavior for rotation
           may cause significant error
 Rotational temperatures (Kelvin)      0.02252     0.01847     0.01336
 Rotational constants (GHZ):           0.46915     0.38484     0.27835
 Zero-point vibrational energy    1075085.6 (Joules/Mol)
                                  256.95163 (Kcal/Mol)
 Warning -- explicit consideration of  24 degrees of freedom as
           vibrations may cause significant error
 Vibrational temperatures:     37.74    88.98   103.18   128.71   196.59
          (Kelvin)            248.23   259.93   334.56   347.06   409.42
                              436.54   440.51   465.16   491.34   579.90
                              599.94   602.54   620.12   639.07   677.46
                              720.15   735.83   786.88   831.50   911.17
                              932.86  1028.86  1051.92  1119.83  1148.12
                             1152.77  1183.08  1205.38  1226.18  1248.50
                             1260.30  1277.39  1301.96  1318.40  1337.59
                             1343.74  1359.04  1378.22  1394.93  1422.63
                             1460.06  1463.03  1475.73  1488.27  1503.48
                             1521.15  1527.45  1538.68  1562.97  1576.33
                             1589.26  1614.23  1660.96  1668.42  1686.92
                             1702.48  1715.39  1757.45  1758.78  1774.73
                             1799.43  1844.50  1876.90  1880.51  1885.57
                             1893.92  1927.87  1937.98  1954.00  1971.95
                             1984.24  1989.40  2005.31  2011.10  2020.61
                             2028.32  2032.28  2038.33  2052.13  2127.57
                             2145.92  2149.36  2162.67  2168.78  2173.16
                             2187.56  2191.29  2195.65  2198.85  2213.32
                             2229.91  2263.26  2346.16  2361.76  2391.98
                             4380.07  4389.28  4398.08  4403.04  4408.93
                             4424.26  4430.85  4437.03  4453.23  4456.35
                             4462.78  4470.94  4478.60  4489.90  4512.41
                             4513.77  4524.58  4535.28  4612.52  4613.78
                             4623.93  4626.89  4642.90  4657.36  4666.23
                             4921.61

 Zero-point correction=                           0.409478 (Hartree/Particle)
 Thermal correction to Energy=                    0.425154
 Thermal correction to Enthalpy=                  0.426098
 Thermal correction to Gibbs Free Energy=         0.366711
 Sum of electronic and zero-point Energies=           -717.681865
 Sum of electronic and thermal Energies=              -717.666190
 Sum of electronic and thermal Enthalpies=            -717.665246
 Sum of electronic and thermal Free Energies=         -717.724633

                     E (Thermal)             CV                S
                      KCal/Mol        Cal/Mol-Kelvin    Cal/Mol-Kelvin
 Total                  266.788             65.699            124.991
 Electronic               0.000              0.000              0.000
 Translational            0.889              2.981             42.379
 Rotational               0.889              2.981             33.125
 Vibrational            265.011             59.737             49.487
 Vibration     1          0.593              1.985              6.096
 Vibration     2          0.597              1.973              4.397
 Vibration     3          0.598              1.967              4.106
 Vibration     4          0.602              1.957              3.672
 Vibration     5          0.614              1.917              2.850
 Vibration     6          0.626              1.876              2.408
 Vibration     7          0.630              1.866              2.322
 Vibration     8          0.653              1.791              1.859
 Vibration     9          0.658              1.777              1.794
 Vibration    10          0.683              1.702              1.506
 Vibration    11          0.695              1.667              1.398
 Vibration    12          0.697              1.662              1.383
 Vibration    13          0.708              1.629              1.293
 Vibration    14          0.721              1.593              1.205
 Vibration    15          0.768              1.464              0.951
 Vibration    16          0.780              1.433              0.902
 Vibration    17          0.782              1.429              0.896
 Vibration    18          0.792              1.403              0.855
 Vibration    19          0.804              1.374              0.814
 Vibration    20          0.828              1.315              0.735
 Vibration    21          0.856              1.249              0.657
 Vibration    22          0.867              1.225              0.630
 Vibration    23          0.902              1.146              0.551
 Vibration    24          0.934              1.079              0.489

                           ! Non-Optimized Parameters !
 Normal termination of Gaussian 16 at Sun Jul 11 17:01:16 2021.

 ----------------------------------------------------------------------
 #p b3lyp/6-31G(d) scrf=(iefpcm,read,solvent=water) geom=allcheck guess
 =read
 ----------------------------------------------------------------------

 Structure from the checkpoint file:  "SET_328_BBB65_conf1.geo_060_150.chk"
 ----------------------------------------
 SET_328_BBB65_conf1.geo_060_150 geometry
 ----------------------------------------
 Charge =  1 Multiplicity = 1

 SCF Done:  E(RB3LYP) =  -718.091343912     A.U. after    1 cycles
 Normal termination of Gaussian 16 at Sun Jul 11 17:01:29 2021.

 -----------------------------
 #p B3LYP/6-31G* geom=allcheck
 -----------------------------

 Structure from the checkpoint file:  "SET_328_BBB65_conf1.geo_060_150.chk"
 ----------------------------------------
 SET_328_BBB65_conf1.geo_060_150 geometry
 ----------------------------------------
 Charge =  1 Multiplicity = 1

 SCF Done:  E(RB3LYP) =  -718.016837366     A.U. after   14 cycles
 Normal termination of Gaussian 16 at Sun Jul 11 17:02:34 2021.
 Gaussian 16:  ES64L-G16RevB.01 20-Dec-2017

 --------------------------------------------------------
 #p mp2/aug-cc-pVDZ scf=tight maxdisk=180GB geom=allcheck
 --------------------------------------------------------

 Structure from the checkpoint file:  "SET_328_BBB65_conf1.geo_060_150.chk"
 ----------------------------------------
 SET_328_BBB65_conf1.geo_060_150 geometry
 ----------------------------------------
 Charge =  1 Multiplicity = 1

                         Standard orientation:
 ---------------------------------------------------------------------
 Center     Atomic      Atomic             Coordinates (Angstroms)
 Number     Number       Type             X           Y           Z
 ---------------------------------------------------------------------
      1          6           0        1.470133   -3.476121    0.042364
      2          6           0        1.736628   -2.596392   -1.179655
      3          6           0        0.800757   -1.391327   -1.230029
      4          1           0        1.047845   -0.755207   -2.075143
      5          1           0       -0.244616   -1.691291   -1.305674
      6          1           0        2.776543   -2.247995   -1.176516
      7          1           0        1.593398   -3.155678   -2.108769
      8          1           0        0.482375   -3.943877   -0.047382
      9          1           0        2.204657   -4.284523    0.096057
     10          6           0        1.523861   -2.626382    1.311986
     11          1           0        2.549336   -2.283421    1.494346
     12          1           0        1.226096   -3.209290    2.189537
     13          6           0        0.593112   -1.419657    1.232211
     14          1           0        0.692371   -0.801117    2.121310
     15          1           0       -0.450406   -1.716735    1.122779
     16          7           0        0.913921   -0.555571    0.028675
     17          6           0        0.119294    0.806178   -0.006972
     18          6           0        0.508784    1.642590    1.238509
     19          6           0        1.946043    2.186769    1.260058
     20          6           0        2.279562    2.976411   -0.009508
     21          6           0        1.982719    2.142836   -1.261800
     22          6           0        0.534756    1.619870   -1.261215
     23          1           0        0.333881    1.071659   -2.182585
     24          1           0       -0.146419    2.477754   -1.273704
     25          1           0        2.701206    1.317371   -1.336550
     26          1           0        2.124660    2.745424   -2.165859
     27          1           0        3.328882    3.288644    0.002108
     28          1           0        1.674878    3.892389   -0.034626
     29          1           0        2.674649    1.378053    1.395260
     30          1           0        2.046970    2.824262    2.144316
     31          1           0        0.309567    1.099181    2.161050
     32          1           0       -0.184067    2.490001    1.238445
     33          6           0       -1.380842    0.473091   -0.021351
     34          6           0       -2.058217    0.213508   -1.224448
     35          1           0       -1.534486    0.252085   -2.171702
     36          6           0       -3.420345   -0.086788   -1.235957
     37          1           0       -3.914813   -0.280675   -2.181531
     38          6           0       -4.142237   -0.131380   -0.044252
     39          1           0       -5.202009   -0.362298   -0.053410
     40          6           0       -3.487521    0.130080    1.158653
     41          1           0       -4.033950    0.105579    2.095862
     42          6           0       -2.125456    0.429088    1.167709
     43          1           0       -1.651366    0.634042    2.119231
     44          1           0        1.911180   -0.309580    0.114613
 ---------------------------------------------------------------------

 SCF Done:  E(RHF) =  -713.237007030     A.U. after   15 cycles
 E2 =    -0.2617871172D+01 EUMP2 =    -0.71585487820192D+03

 The electronic state is 1-A.
 Alpha  occ. eigenvalues --  -15.82697 -11.44831 -11.42553 -11.42487 -11.37575
 Alpha  occ. eigenvalues --  -11.37309 -11.37258 -11.36843 -11.36838 -11.36291
 Alpha  occ. eigenvalues --  -11.36185 -11.36055 -11.35551 -11.35549 -11.35544
 Alpha  occ. eigenvalues --  -11.35466 -11.35380 -11.34376  -1.45508  -1.28572
 Alpha  occ. eigenvalues --   -1.25295  -1.21763  -1.18636  -1.17045  -1.14690
 Alpha  occ. eigenvalues --   -1.13148  -1.10845  -1.05034  -1.01538  -0.99173
 Alpha  occ. eigenvalues --   -0.97798  -0.94218  -0.93503  -0.91964  -0.89374
 Alpha  occ. eigenvalues --   -0.84438  -0.82607  -0.81169  -0.79379  -0.77114
 Alpha  occ. eigenvalues --   -0.76221  -0.75552  -0.75100  -0.73070  -0.72877
 Alpha  occ. eigenvalues --   -0.72603  -0.72094  -0.70502  -0.69507  -0.68716
 Alpha  occ. eigenvalues --   -0.67882  -0.66299  -0.65685  -0.65328  -0.64776
 Alpha  occ. eigenvalues --   -0.62167  -0.61914  -0.61359  -0.60917  -0.60737
 Alpha  occ. eigenvalues --   -0.60098  -0.59867  -0.58465  -0.57049  -0.56056
 Alpha  occ. eigenvalues --   -0.45443  -0.45259
 Alpha virt. eigenvalues --   -0.06326  -0.05297  -0.05237  -0.04595  -0.03502
 Alpha virt. eigenvalues --   -0.03263  -0.03221  -0.03150  -0.02940  -0.01679
 Alpha virt. eigenvalues --   -0.01337  -0.01191  -0.01122  -0.01046  -0.00793

 Mulliken charges:
               1
     1  C    0.438147
     2  C    0.527690
     3  C    0.703292
     4  H   -0.288583
     5  H   -0.199083
     6  H   -0.023814
     7  H   -0.095321
     8  H   -0.066117
     9  H   -0.122344
    10  C    0.564508
    11  H   -0.029841
    12  H   -0.086884
    13  C    0.535102
    14  H   -0.259666
    15  H   -0.155053
    16  N   -1.037723
    17  C   -2.602443
    18  C    1.064911
    19  C    0.424972
    20  C    0.565851
    21  C    0.531595
    22  C    0.904211
    23  H   -0.299415
    24  H   -0.129865
    25  H   -0.116278
    26  H   -0.138442
    27  H   -0.140701
    28  H   -0.097126
    29  H   -0.065490
    30  H   -0.132811
    31  H   -0.309701
    32  H   -0.066643
    33  C    1.419414
    34  C    0.905940
    35  H   -0.810583
    36  C   -0.084806
    37  H   -0.538505
    38  C    0.960596
    39  H   -0.417999
    40  C   -0.032110
    41  H   -0.538960
    42  C    0.841614
    43  H   -0.800142
    44  H    0.298610
 Sum of Mulliken charges =   1.00000

 Dipole moment (field-independent basis, Debye):
    X=              2.5314    Y=             -1.9816    Z=              0.0986  Tot=              3.2163
 Quadrupole moment (field-independent basis, Debye-Ang):
   XX=            -86.5923   YY=            -92.4292   ZZ=            -95.9636
   XY=             -0.6100   XZ=             -0.2380   YZ=              0.6575

 Normal termination of Gaussian 16 at Sun Jul 11 17:55:14 2021.
