 Gaussian 16, Revision B.01,

 -----------------------------------------------------------
 #p b3lyp/6-31G(d) opt freq scrf=(iefpcm,read,solvent=water)
 -----------------------------------------------------------

 -----------------------------------------
 SET_328_BBB304_conf1.geo_210_285 geometry
 -----------------------------------------
 Symbolic Z-matrix:
 Charge =  1 Multiplicity = 1

 SCF Done:  E(RB3LYP) =  -741.158900877     A.U. after   13 cycles
 SCF Done:  E(RB3LYP) =  -741.194697943     A.U. after   11 cycles
 SCF Done:  E(RB3LYP) =  -741.208201954     A.U. after   11 cycles
 SCF Done:  E(RB3LYP) =  -741.209893342     A.U. after   10 cycles
 SCF Done:  E(RB3LYP) =  -741.211108001     A.U. after   10 cycles
 SCF Done:  E(RB3LYP) =  -741.211319004     A.U. after   12 cycles
 SCF Done:  E(RB3LYP) =  -741.211728855     A.U. after   11 cycles
 SCF Done:  E(RB3LYP) =  -741.211755716     A.U. after    9 cycles
 SCF Done:  E(RB3LYP) =  -741.211794483     A.U. after    9 cycles
 SCF Done:  E(RB3LYP) =  -741.211811340     A.U. after    8 cycles
 SCF Done:  E(RB3LYP) =  -741.211866360     A.U. after    8 cycles
 SCF Done:  E(RB3LYP) =  -741.211864873     A.U. after    7 cycles
 SCF Done:  E(RB3LYP) =  -741.211865709     A.U. after    7 cycles
 SCF Done:  E(RB3LYP) =  -741.211866150     A.U. after    7 cycles
 SCF Done:  E(RB3LYP) =  -741.211866297     A.U. after    8 cycles
 SCF Done:  E(RB3LYP) =  -741.211866863     A.U. after    8 cycles
 Optimization completed.
    -- Stationary point found.
 Normal termination of Gaussian 16 at Sun Jul 11 16:30:26 2021.

 --------------------------------------------------------------------
 #P Geom=AllCheck Guess=TCheck SCRF=Check GenChk RB3LYP/6-31G(d) Freq
 --------------------------------------------------------------------

 Structure from the checkpoint file:  "SET_328_BBB304_conf1.geo_210_285.chk"
 -----------------------------------------
 SET_328_BBB304_conf1.geo_210_285 geometry
 -----------------------------------------
 Charge =  1 Multiplicity = 1

 SCF Done:  E(RB3LYP) =  -741.211866863     A.U. after    1 cycles

  Exact polarizability: 207.011  18.267 167.952  -3.162 -16.517 100.901
 Approx polarizability: 214.505  19.873 192.440  -5.724 -21.748 114.456

                      1                      2                      3
                      A                      A                      A
 Frequencies --     24.6345                56.6669                58.3025
 Red. masses --      4.7289                 4.8050                 4.2969
 Frc consts  --      0.0017                 0.0091                 0.0086
 IR Inten    --      2.1593                 7.5814                 8.8818

                      4                      5                      6
                      A                      A                      A
 Frequencies --     98.3210               119.6690               176.0355
 Red. masses --      3.9758                 3.3705                 4.8850
 Frc consts  --      0.0226                 0.0284                 0.0892
 IR Inten    --      4.7048                 4.6890                 2.0310

                      7                      8                      9
                      A                      A                      A
 Frequencies --    194.8039               206.6834               220.7060
 Red. masses --      4.5996                 2.4300                 4.7963
 Frc consts  --      0.1028                 0.0612                 0.1377
 IR Inten    --      1.4084                 3.2492                 6.5219

                     10                     11                     12
                      A                      A                      A
 Frequencies --    283.6915               354.1511               372.4941
 Red. masses --      4.7656                 1.2323                 3.4140
 Frc consts  --      0.2260                 0.0911                 0.2791
 IR Inten    --      4.0836               207.3740                 4.3926

                     13                     14                     15
                      A                      A                      A
 Frequencies --    380.2954               395.7822               417.3575
 Red. masses --      4.1404                 1.2093                 4.0841
 Frc consts  --      0.3528                 0.1116                 0.4191
 IR Inten    --     17.0896               408.0052                39.4080

                     16                     17                     18
                      A                      A                      A
 Frequencies --    434.3599               482.6915               542.7838
 Red. masses --      2.9480                 2.7529                 3.5256
 Frc consts  --      0.3277                 0.3779                 0.6120
 IR Inten    --      0.8406                 5.9273                 7.4983

                     19                     20                     21
                      A                      A                      A
 Frequencies --    550.2183               577.9290               594.8180
 Red. masses --      1.0654                 5.1300                 2.5369
 Frc consts  --      0.1900                 1.0095                 0.5288
 IR Inten    --      6.8311                 9.2856                13.9378

                     22                     23                     24
                      A                      A                      A
 Frequencies --    619.2729               645.5077               686.6291
 Red. masses --      5.4916                 1.2328                 3.6352
 Frc consts  --      1.2408                 0.3027                 1.0098
 IR Inten    --      8.8839               113.5389                26.6203

                     25                     26                     27
                      A                      A                      A
 Frequencies --    711.3362               758.7983               792.0849
 Red. masses --      3.5360                 9.8696                 4.4517
 Frc consts  --      1.0542                 3.3481                 1.6456
 IR Inten    --      0.9071                82.2274                25.1891

                     28                     29                     30
                      A                      A                      A
 Frequencies --    799.0851               804.9969               835.2968
 Red. masses --      1.9479                 3.6779                 3.0216
 Frc consts  --      0.7328                 1.4042                 1.2421
 IR Inten    --     39.9869                 5.1616                40.9104

                     31                     32                     33
                      A                      A                      A
 Frequencies --    887.7095               940.3171               953.7807
 Red. masses --      1.7326                 1.6749                 2.3972
 Frc consts  --      0.8044                 0.8725                 1.2848
 IR Inten    --     15.1648                15.5462                34.4397

                     34                     35                     36
                      A                      A                      A
 Frequencies --    999.1518              1005.4147              1017.8707
 Red. masses --      1.9215                 1.4788                 1.9602
 Frc consts  --      1.1302                 0.8808                 1.1966
 IR Inten    --     15.9439                 2.9253                12.7939

                     37                     38                     39
                      A                      A                      A
 Frequencies --   1034.0150              1080.5131              1086.1332
 Red. masses --      3.1660                 4.4113                 2.5790
 Frc consts  --      1.9944                 3.0345                 1.7925
 IR Inten    --     50.3821               158.9386                58.5864

                     40                     41                     42
                      A                      A                      A
 Frequencies --   1102.6490              1123.6008              1133.9500
 Red. masses --      2.2221                 3.3644                 2.0707
 Frc consts  --      1.5918                 2.5025                 1.5688
 IR Inten    --    163.3686               352.0752                 5.6065

                     43                     44                     45
                      A                      A                      A
 Frequencies --   1140.2759              1192.9632              1216.0548
 Red. masses --      2.6244                 1.4306                 1.6358
 Frc consts  --      2.0105                 1.1995                 1.4252
 IR Inten    --     21.6350                10.5857                 1.1983

                     46                     47                     48
                      A                      A                      A
 Frequencies --   1229.3291              1239.9283              1270.8765
 Red. masses --      1.3822                 1.2365                 6.1807
 Frc consts  --      1.2307                 1.1201                 5.8816
 IR Inten    --     66.9688                19.8072                16.3946

                     49                     50                     51
                      A                      A                      A
 Frequencies --   1311.5290              1312.7860              1336.0217
 Red. masses --      1.4068                 1.4396                 1.3145
 Frc consts  --      1.4257                 1.4617                 1.3825
 IR Inten    --    133.3976               230.2219                12.1556

                     52                     53                     54
                      A                      A                      A
 Frequencies --   1357.1531              1367.6776              1385.5078
 Red. masses --      1.3845                 1.4084                 1.3147
 Frc consts  --      1.5025                 1.5522                 1.4870
 IR Inten    --     56.7320                 1.5239                31.4946

                     55                     56                     57
                      A                      A                      A
 Frequencies --   1406.1394              1413.5533              1432.8141
 Red. masses --      1.3733                 1.2645                 1.5404
 Frc consts  --      1.5998                 1.4887                 1.8632
 IR Inten    --     41.2894                26.6465                42.8873

                     58                     59                     60
                      A                      A                      A
 Frequencies --   1446.8916              1471.6501              1506.3975
 Red. masses --      1.4783                 1.9085                 1.0890
 Frc consts  --      1.8234                 2.4353                 1.4560
 IR Inten    --     39.8081                16.1787                 2.0247

                     61                     62                     63
                      A                      A                      A
 Frequencies --   1511.6017              1520.9729              1570.8396
 Red. masses --      1.0908                 1.1122                 5.9011
 Frc consts  --      1.4685                 1.5160                 8.5792
 IR Inten    --      4.3472                 5.0248               286.1049

                     64                     65                     66
                      A                      A                      A
 Frequencies --   1614.8158              1665.1010              1695.3209
 Red. masses --      1.6552                 2.3665                 3.7768
 Frc consts  --      2.5431                 3.8657                 6.3955
 IR Inten    --     18.7423                 5.6852              1698.6567

                     67                     68                     69
                      A                      A                      A
 Frequencies --   1781.5977              3033.7497              3048.9873
 Red. masses --      9.2698                 1.0687                 1.0833
 Frc consts  --     17.3357                 5.7954                 5.9335
 IR Inten    --   1011.4709                43.6555                86.7716

                     70                     71                     72
                      A                      A                      A
 Frequencies --   3083.0142              3102.1351              3119.4207
 Red. masses --      1.0651                 1.0666                 1.0973
 Frc consts  --      5.9650                 6.0477                 6.2910
 IR Inten    --     45.1437                18.2714                55.1306

                     73                     74                     75
                      A                      A                      A
 Frequencies --   3129.1857              3144.9607              3171.2792
 Red. masses --      1.0871                 1.1010                 1.1019
 Frc consts  --      6.2719                 6.4163                 6.5290
 IR Inten    --     27.8218                30.8239                27.9875

                     76                     77                     78
                      A                      A                      A
 Frequencies --   3281.4738              3294.5887              3512.5644
 Red. masses --      1.0915                 1.0958                 1.0793
 Frc consts  --      6.9250                 7.0076                 7.8461
 IR Inten    --      4.7316                 9.2326               253.1176

                     79                     80                     81
                      A                      A                      A
 Frequencies --   3553.7163              3666.2563              3725.9063
 Red. masses --      1.0478                 1.1071                 1.0662
 Frc consts  --      7.7963                 8.7677                 8.7207
 IR Inten    --    524.1092               215.4396                73.2476

 - Thermochemistry -
 -------------------
 Temperature   298.150 Kelvin.  Pressure   1.00000 Atm.
 Atom     1 has atomic number  7 and mass  14.00307

 Molecular mass:   212.10352 amu.
 Principal axes and moments of inertia in atomic units:
                           1         2         3
     Eigenvalues --  1445.106645501.024406523.71571
           X            0.99987   0.01629   0.00096
           Y           -0.01630   0.99983   0.00901
           Z           -0.00082  -0.00902   0.99996
 This molecule is an asymmetric top.
 Rotational symmetry number  1.
 Warning -- assumption of classical behavior for rotation
           may cause significant error
 Rotational temperatures (Kelvin)      0.05994     0.01575     0.01328
 Rotational constants (GHZ):           1.24886     0.32807     0.27664
 Zero-point vibrational energy     638958.7 (Joules/Mol)
                                  152.71478 (Kcal/Mol)
 Warning -- explicit consideration of  22 degrees of freedom as
           vibrations may cause significant error
 Vibrational temperatures:     35.44    81.53    83.88   141.46   172.18
          (Kelvin)            253.28   280.28   297.37   317.55   408.17
                              509.54   535.94   547.16   569.44   600.48
                              624.95   694.49   780.94   791.64   831.51
                              855.81   891.00   928.74   987.91  1023.45
                             1091.74  1139.63  1149.71  1158.21  1201.81
                             1277.22  1352.91  1372.28  1437.56  1446.57
                             1464.49  1487.72  1554.62  1562.70  1586.47
                             1616.61  1631.50  1640.60  1716.41  1749.63
                             1768.73  1783.98  1828.51  1887.00  1888.81
                             1922.24  1952.64  1967.78  1993.44  2023.12
                             2033.79  2061.50  2081.75  2117.38  2167.37
                             2174.86  2188.34  2260.09  2323.36  2395.71
                             2439.19  2563.32  4364.89  4386.81  4435.77
                             4463.28  4488.15  4502.20  4524.90  4562.76
                             4721.31  4740.18  5053.80  5113.01  5274.93
                             5360.75

 Zero-point correction=                           0.243366 (Hartree/Particle)
 Thermal correction to Energy=                    0.257243
 Thermal correction to Enthalpy=                  0.258187
 Thermal correction to Gibbs Free Energy=         0.201643
 Sum of electronic and zero-point Energies=           -740.968500
 Sum of electronic and thermal Energies=              -740.954624
 Sum of electronic and thermal Enthalpies=            -740.953680
 Sum of electronic and thermal Free Energies=         -741.010224

                     E (Thermal)             CV                S
                      KCal/Mol        Cal/Mol-Kelvin    Cal/Mol-Kelvin
 Total                  161.422             53.400            119.008
 Electronic               0.000              0.000              0.000
 Translational            0.889              2.981             41.959
 Rotational               0.889              2.981             32.317
 Vibrational            159.645             47.438             44.732
 Vibration     1          0.593              1.985              6.220
 Vibration     2          0.596              1.975              4.570
 Vibration     3          0.596              1.974              4.514
 Vibration     4          0.604              1.950              3.487
 Vibration     5          0.609              1.933              3.106
 Vibration     6          0.628              1.872              2.370
 Vibration     7          0.635              1.847              2.182
 Vibration     8          0.641              1.830              2.073
 Vibration     9          0.647              1.810              1.953
 Vibration    10          0.682              1.704              1.511
 Vibration    11          0.730              1.567              1.148
 Vibration    12          0.744              1.529              1.070
 Vibration    13          0.750              1.512              1.038
 Vibration    14          0.763              1.479              0.978
 Vibration    15          0.780              1.433              0.901
 Vibration    16          0.795              1.395              0.845
 Vibration    17          0.839              1.288              0.703
 Vibration    18          0.898              1.155              0.559
 Vibration    19          0.906              1.139              0.544
 Vibration    20          0.934              1.079              0.489
 Vibration    21          0.953              1.043              0.459
 Vibration    22          0.979              0.991              0.418

 Optimization completed.
    -- Stationary point found.
 Normal termination of Gaussian 16 at Sun Jul 11 16:37:20 2021.

 ----------------------------------------------------------------------
 #p b3lyp/6-31G(d) scrf=(iefpcm,read,solvent=water) geom=allcheck guess
 =read
 ----------------------------------------------------------------------

 Structure from the checkpoint file:  "SET_328_BBB304_conf1.geo_210_285.chk"
 -----------------------------------------
 SET_328_BBB304_conf1.geo_210_285 geometry
 -----------------------------------------
 Charge =  1 Multiplicity = 1

 SCF Done:  E(RB3LYP) =  -741.211866863     A.U. after    1 cycles
 Normal termination of Gaussian 16 at Sun Jul 11 16:37:28 2021.

 -----------------------------
 #p B3LYP/6-31G* geom=allcheck
 -----------------------------

 Structure from the checkpoint file:  "SET_328_BBB304_conf1.geo_210_285.chk"
 -----------------------------------------
 SET_328_BBB304_conf1.geo_210_285 geometry
 -----------------------------------------
 Charge =  1 Multiplicity = 1

 SCF Done:  E(RB3LYP) =  -741.101638331     A.U. after   14 cycles
 Normal termination of Gaussian 16 at Sun Jul 11 16:37:59 2021.
 Gaussian 16:  ES64L-G16RevB.01 20-Dec-2017

 --------------------------------------------------------
 #p mp2/aug-cc-pVDZ scf=tight maxdisk=180GB geom=allcheck
 --------------------------------------------------------

 Structure from the checkpoint file:  "SET_328_BBB304_conf1.geo_210_285.chk"
 -----------------------------------------
 SET_328_BBB304_conf1.geo_210_285 geometry
 -----------------------------------------
 Charge =  1 Multiplicity = 1

                         Standard orientation:
 ---------------------------------------------------------------------
 Center     Atomic      Atomic             Coordinates (Angstroms)
 Number     Number       Type             X           Y           Z
 ---------------------------------------------------------------------
      1          7           0       -4.461384   -1.224317    0.329760
      2          1           0       -5.257585   -0.610015    0.184871
      3          1           0       -4.640598   -2.188704    0.588607
      4          6           0       -3.218158   -0.802880    0.164829
      5          6           0       -2.078578   -1.631016    0.340514
      6          6           0       -0.848975   -1.079592    0.144037
      7          1           0        0.065774   -1.647862    0.233924
      8          1           0       -2.188255   -2.670913    0.611339
      9          7           0       -2.999813    0.490577   -0.194509
     10          6           0       -1.756151    1.076104   -0.397365
     11          8           0       -1.628437    2.246786   -0.719392
     12          7           0       -0.678479    0.222641   -0.202014
     13          6           0        0.682322    0.813995   -0.424966
     14          8           0        1.614422   -0.224795   -0.565018
     15          1           0        0.599198    1.367582   -1.360878
     16          6           0        1.141191    1.696658    0.751002
     17          1           0        0.588763    1.420205    1.652707
     18          1           0        0.966868    2.753728    0.552511
     19          6           0        2.623242    1.329736    0.889677
     20          1           0        3.002265    1.476548    1.903276
     21          1           0        3.237108    1.920178    0.202168
     22          6           0        2.639917   -0.136549    0.468592
     23          1           0        2.351664   -0.795516    1.297704
     24          6           0        3.942569   -0.625891   -0.136373
     25          1           0        4.736318   -0.522109    0.608508
     26          1           0        4.196850    0.009875   -0.995734
     27          8           0        3.900995   -1.998438   -0.497788
     28          1           0        3.254828   -2.083056   -1.219453
     29          1           0       -3.795573    1.115937   -0.334309
 ---------------------------------------------------------------------

 SCF Done:  E(RHF) =  -736.827374319     A.U. after   14 cycles
 E2 =    -0.2336503409D+01 EUMP2 =    -0.73916387772868D+03

 The electronic state is 1-A.
 Alpha  occ. eigenvalues --  -20.71265 -20.70593 -20.66403 -15.82107 -15.80307
 Alpha  occ. eigenvalues --  -15.79998 -11.57850 -11.57365 -11.50153 -11.47731
 Alpha  occ. eigenvalues --  -11.41557 -11.40894 -11.38425 -11.36334 -11.35322
 Alpha  occ. eigenvalues --   -1.59215  -1.53934  -1.51154  -1.45842  -1.44918
 Alpha  occ. eigenvalues --   -1.40186  -1.25377  -1.19698  -1.16111  -1.10567
 Alpha  occ. eigenvalues --   -1.08386  -1.02831  -0.97033  -0.95815  -0.94497
 Alpha  occ. eigenvalues --   -0.92358  -0.89504  -0.86819  -0.85895  -0.83534
 Alpha  occ. eigenvalues --   -0.82139  -0.80280  -0.80070  -0.77210  -0.75845
 Alpha  occ. eigenvalues --   -0.74480  -0.73643  -0.71012  -0.70085  -0.69213
 Alpha  occ. eigenvalues --   -0.67851  -0.64800  -0.63851  -0.62671  -0.61853
 Alpha  occ. eigenvalues --   -0.61154  -0.60166  -0.58914  -0.57346  -0.53911
 Alpha  occ. eigenvalues --   -0.51094
 Alpha virt. eigenvalues --   -0.08775  -0.08645  -0.06525  -0.05677  -0.04588
 Alpha virt. eigenvalues --   -0.04016  -0.03434  -0.02903  -0.02634  -0.02129
 Alpha virt. eigenvalues --   -0.01594  -0.01217  -0.01077  -0.00160   0.00257

 Mulliken charges:
               1
     1  N   -0.288981
     2  H   -0.009480
     3  H    0.055530
     4  C    0.695914
     5  C    1.545127
     6  C    0.447312
     7  H   -0.495406
     8  H   -0.494195
     9  N   -0.587614
    10  C    0.836050
    11  O   -0.718277
    12  N   -0.376185
    13  C    1.084329
    14  O   -1.191292
    15  H   -0.389288
    16  C    0.553463
    17  H   -0.230314
    18  H   -0.108294
    19  C    0.542887
    20  H   -0.093281
    21  H   -0.144733
    22  C    0.153489
    23  H   -0.281908
    24  C    1.227064
    25  H   -0.081463
    26  H   -0.053900
    27  O   -0.713196
    28  H    0.178137
    29  H   -0.061494
 Sum of Mulliken charges =   1.00000

 Dipole moment (field-independent basis, Debye):
    X=            -11.0387    Y=             -2.5237    Z=              2.0161  Tot=             11.5016
 Quadrupole moment (field-independent basis, Debye-Ang):
   XX=            -21.4414   YY=            -82.3942   ZZ=            -84.6788
   XY=             23.9294   XZ=             -1.4212   YZ=              0.1960

 Normal termination of Gaussian 16 at Sun Jul 11 16:54:24 2021.
