 Gaussian 16, Revision B.01,

 -----------------------------------------------------------
 #p b3lyp/6-31G(d) opt freq scrf=(iefpcm,read,solvent=water)
 -----------------------------------------------------------

 -----------------------------------------
 SET_328_BBB282_conf1.geo_000_090 geometry
 -----------------------------------------
 Symbolic Z-matrix:
 Charge = -1 Multiplicity = 1

 SCF Done:  E(RB3LYP) =  -799.207960693     A.U. after   14 cycles
 SCF Done:  E(RB3LYP) =  -799.245822165     A.U. after   12 cycles
 SCF Done:  E(RB3LYP) =  -799.263335434     A.U. after   12 cycles
 SCF Done:  E(RB3LYP) =  -799.265341117     A.U. after   11 cycles
 SCF Done:  E(RB3LYP) =  -799.263620036     A.U. after   11 cycles
 SCF Done:  E(RB3LYP) =  -799.266991980     A.U. after   11 cycles
 SCF Done:  E(RB3LYP) =  -799.267183892     A.U. after   10 cycles
 SCF Done:  E(RB3LYP) =  -799.267218180     A.U. after   10 cycles
 SCF Done:  E(RB3LYP) =  -799.267239883     A.U. after    9 cycles
 SCF Done:  E(RB3LYP) =  -799.267243032     A.U. after    9 cycles
 SCF Done:  E(RB3LYP) =  -799.267250500     A.U. after    8 cycles
 SCF Done:  E(RB3LYP) =  -799.267250817     A.U. after    9 cycles
 SCF Done:  E(RB3LYP) =  -799.267253418     A.U. after    9 cycles
 SCF Done:  E(RB3LYP) =  -799.267255943     A.U. after    8 cycles
 SCF Done:  E(RB3LYP) =  -799.267255938     A.U. after    7 cycles
 SCF Done:  E(RB3LYP) =  -799.267255832     A.U. after    7 cycles
 Optimization completed.
    -- Stationary point found.
 Normal termination of Gaussian 16 at Sun Jul 11 16:20:17 2021.

 --------------------------------------------------------------------
 #P Geom=AllCheck Guess=TCheck SCRF=Check GenChk RB3LYP/6-31G(d) Freq
 --------------------------------------------------------------------

 Structure from the checkpoint file:  "SET_328_BBB282_conf1.geo_000_090.chk"
 -----------------------------------------
 SET_328_BBB282_conf1.geo_000_090 geometry
 -----------------------------------------
 Charge = -1 Multiplicity = 1

 SCF Done:  E(RB3LYP) =  -799.267255832     A.U. after    1 cycles

  Exact polarizability: 287.016  -5.493 245.511   3.519 -15.926  94.405
 Approx polarizability: 305.285 -19.212 303.630   6.261 -24.209 109.150

                      1                      2                      3
                      A                      A                      A
 Frequencies --     36.4326                56.8013                73.3007
 Red. masses --      9.8902                 1.1253                 4.6089
 Frc consts  --      0.0077                 0.0021                 0.0146
 IR Inten    --      0.5094                 0.0029                 3.5521

                      4                      5                      6
                      A                      A                      A
 Frequencies --     81.0231                96.9828               108.7825
 Red. masses --      2.9085                 3.8753                 4.8528
 Frc consts  --      0.0112                 0.0215                 0.0338
 IR Inten    --      1.8261                 0.1171                 4.6913

                      7                      8                      9
                      A                      A                      A
 Frequencies --    172.9439               201.4482               215.4648
 Red. masses --      6.3021                 5.0514                 1.3023
 Frc consts  --      0.1111                 0.1208                 0.0356
 IR Inten    --      4.3521                19.9894                 4.1626

                     10                     11                     12
                      A                      A                      A
 Frequencies --    250.3724               262.7723               294.3156
 Red. masses --      4.7103                 2.2417                 4.7825
 Frc consts  --      0.1740                 0.0912                 0.2441
 IR Inten    --      2.5287                 3.5822                 3.0535

                     13                     14                     15
                      A                      A                      A
 Frequencies --    303.9563               364.2697               378.5499
 Red. masses --      6.9418                 4.1017                 3.5642
 Frc consts  --      0.3779                 0.3207                 0.3009
 IR Inten    --     11.4963                 4.8262                 3.0544

                     16                     17                     18
                      A                      A                      A
 Frequencies --    395.8502               428.3758               441.0939
 Red. masses --      5.3128                 8.3627                 4.2376
 Frc consts  --      0.4905                 0.9042                 0.4858
 IR Inten    --     10.0924                 3.3579                 0.2408

                     19                     20                     21
                      A                      A                      A
 Frequencies --    486.4201               508.8499               542.7217
 Red. masses --      5.2152                 4.3560                 4.0019
 Frc consts  --      0.7270                 0.6645                 0.6945
 IR Inten    --     14.2888                10.6202                16.0555

                     22                     23                     24
                      A                      A                      A
 Frequencies --    565.7329               646.6079               663.7193
 Red. masses --      5.6253                 4.1278                 4.8443
 Frc consts  --      1.0608                 1.0168                 1.2573
 IR Inten    --      2.5269                 2.5384                27.8050

                     25                     26                     27
                      A                      A                      A
 Frequencies --    715.4764               722.8486               748.4386
 Red. masses --      7.7851                 5.3778                 8.8804
 Frc consts  --      2.3480                 1.6556                 2.9309
 IR Inten    --      1.1510                 8.3486               155.9540

                     28                     29                     30
                      A                      A                      A
 Frequencies --    783.3891               789.5977               804.0182
 Red. masses --      7.6844                 4.7839                 1.2993
 Frc consts  --      2.7785                 1.7573                 0.4949
 IR Inten    --      0.4090                 0.6870                16.8153

                     31                     32                     33
                      A                      A                      A
 Frequencies --    815.3078               866.0523               887.8072
 Red. masses --      3.8258                 1.6073                 5.3104
 Frc consts  --      1.4984                 0.7103                 2.4661
 IR Inten    --     68.2079                 4.6553                31.0842

                     34                     35                     36
                      A                      A                      A
 Frequencies --    948.8849               977.0181               992.1657
 Red. masses --      4.3491                 2.2288                 1.3779
 Frc consts  --      2.3071                 1.2535                 0.7992
 IR Inten    --     10.6593                 7.0081                 8.6931

                     37                     38                     39
                      A                      A                      A
 Frequencies --   1018.3892              1039.9702              1068.6857
 Red. masses --      1.3314                 1.8124                 1.5842
 Frc consts  --      0.8136                 1.1549                 1.0660
 IR Inten    --      0.1405                 0.0550                11.0784

                     40                     41                     42
                      A                      A                      A
 Frequencies --   1072.5337              1116.1305              1121.1997
 Red. masses --      3.1968                 1.9735                 1.9949
 Frc consts  --      2.1666                 1.4485                 1.4776
 IR Inten    --      1.2858                 8.2460                13.2859

                     43                     44                     45
                      A                      A                      A
 Frequencies --   1159.1891              1170.6109              1254.7888
 Red. masses --      1.7173                 1.8153                 1.9787
 Frc consts  --      1.3596                 1.4656                 1.8356
 IR Inten    --     77.9602                30.3173                26.7191

                     46                     47                     48
                      A                      A                      A
 Frequencies --   1274.6286              1289.9018              1323.2930
 Red. masses --      3.4620                 1.8881                 3.2496
 Frc consts  --      3.3140                 1.8509                 3.3527
 IR Inten    --     10.7329               294.2352               153.4252

                     49                     50                     51
                      A                      A                      A
 Frequencies --   1354.6659              1373.7180              1390.3831
 Red. masses --      4.4220                 7.4433                 2.5936
 Frc consts  --      4.7811                 8.2758                 2.9540
 IR Inten    --    118.6515               745.8070                37.0303

                     52                     53                     54
                      A                      A                      A
 Frequencies --   1398.8306              1414.7141              1425.9065
 Red. masses --      2.0742                 1.6108                 1.3267
 Frc consts  --      2.3913                 1.8995                 1.5893
 IR Inten    --     83.2673                38.9955                 1.5681

                     55                     56                     57
                      A                      A                      A
 Frequencies --   1433.0177              1472.8363              1495.1898
 Red. masses --      1.3000                 3.3822                 1.1490
 Frc consts  --      1.5729                 4.3228                 1.5134
 IR Inten    --     15.0365               496.7343                25.3994

                     58                     59                     60
                      A                      A                      A
 Frequencies --   1496.0317              1500.6239              1511.0108
 Red. masses --      1.1121                 1.1109                 1.0523
 Frc consts  --      1.4665                 1.4739                 1.4156
 IR Inten    --     15.6143                 3.9658                19.5445

                     61                     62                     63
                      A                      A                      A
 Frequencies --   1522.7378              1531.3137              1589.3513
 Red. masses --      1.4503                 1.8690                 5.1181
 Frc consts  --      1.9813                 2.5822                 7.6172
 IR Inten    --     55.4682               101.7627                73.6095

                     64                     65                     66
                      A                      A                      A
 Frequencies --   1634.2879              1638.6941              1658.0907
 Red. masses --      8.0340                 8.2441                 8.1402
 Frc consts  --     12.6426                13.0433                13.1857
 IR Inten    --    246.3155                 1.8669               268.8475

                     67                     68                     69
                      A                      A                      A
 Frequencies --   1687.4250              3068.5798              3077.5251
 Red. masses --     11.0475                 1.0375                 1.0353
 Frc consts  --     18.5338                 5.7562                 5.7773
 IR Inten    --   1709.4863                26.5569                28.7287

                     70                     71                     72
                      A                      A                      A
 Frequencies --   3119.5260              3126.1539              3145.6391
 Red. masses --      1.0612                 1.1011                 1.1032
 Frc consts  --      6.0845                 6.3402                 6.4314
 IR Inten    --     35.0148                19.0691                30.6182

                     73                     74                     75
                      A                      A                      A
 Frequencies --   3156.4783              3160.8079              3177.0327
 Red. masses --      1.1015                 1.1022                 1.1073
 Frc consts  --      6.4662                 6.4879                 6.5851
 IR Inten    --     42.0803                28.8713                32.3251

                     76                     77                     78
                      A                      A                      A
 Frequencies --   3220.3635              3234.5899              3249.2054
 Red. masses --      1.0884                 1.0946                 1.0905
 Frc consts  --      6.6502                 6.7473                 6.7833
 IR Inten    --      6.9624                21.1367                 2.9432

 - Thermochemistry -
 -------------------
 Temperature   298.150 Kelvin.  Pressure   1.00000 Atm.
 Atom     1 has atomic number  6 and mass  12.00000

 Molecular mass:   231.07697 amu.
 Principal axes and moments of inertia in atomic units:
                           1         2         3
     Eigenvalues --  2277.685505196.699827289.00730
           X            0.99999   0.00488  -0.00075
           Y           -0.00487   0.99996   0.00744
           Z            0.00079  -0.00743   0.99997
 This molecule is an asymmetric top.
 Rotational symmetry number  1.
 Warning -- assumption of classical behavior for rotation
           may cause significant error
 Rotational temperatures (Kelvin)      0.03803     0.01667     0.01188
 Rotational constants (GHZ):           0.79236     0.34729     0.24760
 Zero-point vibrational energy     567041.0 (Joules/Mol)
                                  135.52604 (Kcal/Mol)
 Warning -- explicit consideration of  22 degrees of freedom as
           vibrations may cause significant error
 Vibrational temperatures:     52.42    81.72   105.46   116.57   139.54
          (Kelvin)            156.51   248.83   289.84   310.01   360.23
                              378.07   423.45   437.33   524.10   544.65
                              569.54   616.34   634.64   699.85   732.12
                              780.86   813.96   930.32   954.94  1029.41
                             1040.02  1076.84  1127.12  1136.05  1156.80
                             1173.05  1246.06  1277.36  1365.23  1405.71
                             1427.51  1465.23  1496.29  1537.60  1543.14
                             1605.86  1613.16  1667.81  1684.25  1805.36
                             1833.91  1855.88  1903.92  1949.06  1976.47
                             2000.45  2012.61  2035.46  2051.56  2061.79
                             2119.08  2151.24  2152.46  2159.06  2174.01
                             2190.88  2203.22  2286.72  2351.38  2357.72
                             2385.62  2427.83  4415.00  4427.87  4488.30
                             4497.84  4525.87  4541.47  4547.70  4571.04
                             4633.38  4653.85  4674.88

 Zero-point correction=                           0.215974 (Hartree/Particle)
 Thermal correction to Energy=                    0.230857
 Thermal correction to Enthalpy=                  0.231801
 Thermal correction to Gibbs Free Energy=         0.173068
 Sum of electronic and zero-point Energies=           -799.051281
 Sum of electronic and thermal Energies=              -799.036399
 Sum of electronic and thermal Enthalpies=            -799.035455
 Sum of electronic and thermal Free Energies=         -799.094187

                     E (Thermal)             CV                S
                      KCal/Mol        Cal/Mol-Kelvin    Cal/Mol-Kelvin
 Total                  144.865             55.702            123.613
 Electronic               0.000              0.000              0.000
 Translational            0.889              2.981             42.215
 Rotational               0.889              2.981             32.823
 Vibrational            143.087             49.741             48.576
 Vibration     1          0.594              1.982              5.444
 Vibration     2          0.596              1.975              4.565
 Vibration     3          0.599              1.967              4.063
 Vibration     4          0.600              1.962              3.866
 Vibration     5          0.603              1.951              3.514
 Vibration     6          0.606              1.942              3.291
 Vibration     7          0.626              1.876              2.403
 Vibration     8          0.638              1.838              2.120
 Vibration     9          0.645              1.817              1.997
 Vibration    10          0.663              1.762              1.728
 Vibration    11          0.670              1.741              1.643
 Vibration    12          0.689              1.684              1.449
 Vibration    13          0.695              1.666              1.395
 Vibration    14          0.738              1.546              1.104
 Vibration    15          0.749              1.516              1.045
 Vibration    16          0.763              1.479              0.978
 Vibration    17          0.790              1.408              0.864
 Vibration    18          0.801              1.381              0.823
 Vibration    19          0.842              1.280              0.693
 Vibration    20          0.864              1.230              0.636
 Vibration    21          0.898              1.156              0.559
 Vibration    22          0.922              1.105              0.513

 Optimization completed.
    -- Stationary point found.
 Normal termination of Gaussian 16 at Sun Jul 11 16:28:13 2021.

 ----------------------------------------------------------------------
 #p b3lyp/6-31G(d) scrf=(iefpcm,read,solvent=water) geom=allcheck guess
 =read
 ----------------------------------------------------------------------

 Structure from the checkpoint file:  "SET_328_BBB282_conf1.geo_000_090.chk"
 -----------------------------------------
 SET_328_BBB282_conf1.geo_000_090 geometry
 -----------------------------------------
 Charge = -1 Multiplicity = 1

 SCF Done:  E(RB3LYP) =  -799.267255832     A.U. after    1 cycles
 Normal termination of Gaussian 16 at Sun Jul 11 16:28:20 2021.

 -----------------------------
 #p B3LYP/6-31G* geom=allcheck
 -----------------------------

 Structure from the checkpoint file:  "SET_328_BBB282_conf1.geo_000_090.chk"
 -----------------------------------------
 SET_328_BBB282_conf1.geo_000_090 geometry
 -----------------------------------------
 Charge = -1 Multiplicity = 1

 SCF Done:  E(RB3LYP) =  -799.144611920     A.U. after   18 cycles
 Normal termination of Gaussian 16 at Sun Jul 11 16:29:00 2021.
 Gaussian 16:  ES64L-G16RevB.01 20-Dec-2017

 --------------------------------------------------------
 #p mp2/aug-cc-pVDZ scf=tight maxdisk=180GB geom=allcheck
 --------------------------------------------------------

 Structure from the checkpoint file:  "SET_328_BBB282_conf1.geo_000_090.chk"
 -----------------------------------------
 SET_328_BBB282_conf1.geo_000_090 geometry
 -----------------------------------------
 Charge = -1 Multiplicity = 1

                         Standard orientation:
 ---------------------------------------------------------------------
 Center     Atomic      Atomic             Coordinates (Angstroms)
 Number     Number       Type             X           Y           Z
 ---------------------------------------------------------------------
      1          6           0       -0.967478    3.288330    0.898393
      2          1           0       -0.095871    3.349671    1.555929
      3          1           0       -1.752516    2.725925    1.408753
      4          1           0       -1.333030    4.302739    0.718719
      5          6           0       -0.604283    2.636581   -0.432777
      6          1           0        0.167238    3.211962   -0.945074
      7          1           0       -1.475557    2.574330   -1.084329
      8          7           0       -0.066778    1.271040   -0.276691
      9          6           0        1.275805    1.076299   -0.224201
     10          1           0        1.879981    1.967702   -0.335187
     11          6           0        1.920160   -0.123376   -0.052808
     12          6           0        3.448745   -0.068273   -0.051715
     13          8           0        4.089213   -1.149844    0.030720
     14          8           0        3.962375    1.086467   -0.142986
     15          6           0        1.116965   -1.328426    0.101449
     16          8           0        1.544193   -2.484690    0.277492
     17          6           0       -0.345643   -1.097685    0.036962
     18          6           0       -1.241851   -2.167052    0.157658
     19          1           0       -0.829123   -3.160063    0.298845
     20          6           0       -2.605223   -1.940395    0.096154
     21          1           0       -3.315496   -2.754517    0.188315
     22          6           0       -3.068739   -0.624875   -0.087923
     23          6           0       -4.540654   -0.319849   -0.163757
     24          1           0       -4.789171    0.132380   -1.129314
     25          1           0       -4.823777    0.398716    0.611687
     26          1           0       -5.139488   -1.223747   -0.038525
     27          7           0       -2.233703    0.413448   -0.203964
     28          6           0       -0.913814    0.180058   -0.145278
 ---------------------------------------------------------------------

 SCF Done:  E(RHF) =  -794.467376326     A.U. after   18 cycles
 E2 =    -0.2577799729D+01 EUMP2 =    -0.79704517605549D+03

 The electronic state is 1-A.
 Alpha  occ. eigenvalues --  -20.39100 -20.30933 -20.30524 -15.52089 -15.48247
 Alpha  occ. eigenvalues --  -11.23916 -11.21688 -11.20235 -11.19348 -11.17943
 Alpha  occ. eigenvalues --  -11.17457 -11.16764 -11.16173 -11.15224 -11.14996
 Alpha  occ. eigenvalues --  -11.14215 -11.09626  -1.23431  -1.21484  -1.17735
 Alpha  occ. eigenvalues --   -1.15697  -1.07160  -1.00996  -0.98329  -0.96244
 Alpha  occ. eigenvalues --   -0.91156  -0.88594  -0.79960  -0.78154  -0.76018
 Alpha  occ. eigenvalues --   -0.70889  -0.64864  -0.61709  -0.61271  -0.56347
 Alpha  occ. eigenvalues --   -0.55115  -0.53826  -0.52387  -0.51740  -0.51148
 Alpha  occ. eigenvalues --   -0.50214  -0.48450  -0.47071  -0.46344  -0.45560
 Alpha  occ. eigenvalues --   -0.44737  -0.43833  -0.42578  -0.41730  -0.40296
 Alpha  occ. eigenvalues --   -0.39344  -0.37877  -0.35740  -0.33984  -0.29132
 Alpha  occ. eigenvalues --   -0.28357  -0.23988  -0.22153  -0.20709  -0.19542
 Alpha  occ. eigenvalues --   -0.18711
 Alpha virt. eigenvalues --    0.08668   0.09659   0.10615   0.11066   0.12040
 Alpha virt. eigenvalues --    0.12580   0.13339   0.14099   0.15163   0.15528
 Alpha virt. eigenvalues --    0.16585   0.16873   0.17376   0.18244   0.18797

 Mulliken charges:
               1
     1  C    0.544843
     2  H   -0.086828
     3  H   -0.071074
     4  H   -0.094984
     5  C    0.611303
     6  H   -0.269709
     7  H   -0.192390
     8  N   -0.329726
     9  C    0.669669
    10  H   -0.749647
    11  C    0.378847
    12  C    0.859287
    13  O   -0.981730
    14  O   -1.036763
    15  C    0.164612
    16  O   -0.985402
    17  C    1.604774
    18  C   -0.344086
    19  H   -0.680983
    20  C    0.676688
    21  H   -0.589219
    22  C   -0.230528
    23  C    0.675019
    24  H    0.092293
    25  H    0.082977
    26  H   -0.129235
    27  N   -0.713050
    28  C    0.125041
 Sum of Mulliken charges =  -1.00000

 Dipole moment (field-independent basis, Debye):
    X=            -19.6643    Y=              4.5016    Z=             -0.3400  Tot=             20.1758
 Quadrupole moment (field-independent basis, Debye-Ang):
   XX=           -183.4753   YY=           -113.5319   ZZ=           -103.3027
   XY=             12.0323   XZ=             -0.2844   YZ=              0.5052

 Normal termination of Gaussian 16 at Sun Jul 11 16:56:14 2021.
