 Gaussian 16, Revision B.01,

 -----------------------------------------------------------
 #p b3lyp/6-31G(d) opt freq scrf=(iefpcm,read,solvent=water)
 -----------------------------------------------------------

 -----------------------------------------
 SET_328_BBB212_conf1.geo_225_060 geometry
 -----------------------------------------
 Symbolic Z-matrix:
 Charge = -1 Multiplicity = 1

 SCF Done:  E(RB3LYP) =  -731.156903991     A.U. after   13 cycles
 SCF Done:  E(RB3LYP) =  -731.184343193     A.U. after   11 cycles
 SCF Done:  E(RB3LYP) =  -731.193763532     A.U. after   11 cycles
 SCF Done:  E(RB3LYP) =  -731.195373165     A.U. after   11 cycles
 SCF Done:  E(RB3LYP) =  -731.195806382     A.U. after   10 cycles
 SCF Done:  E(RB3LYP) =  -731.196021141     A.U. after    9 cycles
 SCF Done:  E(RB3LYP) =  -731.196131849     A.U. after    9 cycles
 SCF Done:  E(RB3LYP) =  -731.196166359     A.U. after    9 cycles
 SCF Done:  E(RB3LYP) =  -731.196193277     A.U. after    9 cycles
 SCF Done:  E(RB3LYP) =  -731.196199953     A.U. after    9 cycles
 SCF Done:  E(RB3LYP) =  -731.196202487     A.U. after    9 cycles
 SCF Done:  E(RB3LYP) =  -731.196215938     A.U. after    8 cycles
 SCF Done:  E(RB3LYP) =  -731.196205958     A.U. after    8 cycles
 SCF Done:  E(RB3LYP) =  -731.196200230     A.U. after    7 cycles
 SCF Done:  E(RB3LYP) =  -731.196200046     A.U. after    7 cycles
 SCF Done:  E(RB3LYP) =  -731.196199302     A.U. after    6 cycles
 Optimization completed.
    -- Stationary point found.
 Normal termination of Gaussian 16 at Sun Jul 11 16:14:49 2021.

 --------------------------------------------------------------------
 #P Geom=AllCheck Guess=TCheck SCRF=Check GenChk RB3LYP/6-31G(d) Freq
 --------------------------------------------------------------------

 Structure from the checkpoint file:  "SET_328_BBB212_conf1.geo_225_060.chk"
 -----------------------------------------
 SET_328_BBB212_conf1.geo_225_060 geometry
 -----------------------------------------
 Charge = -1 Multiplicity = 1

 SCF Done:  E(RB3LYP) =  -731.196199302     A.U. after    1 cycles

  Exact polarizability: 281.127  -9.541 202.697  34.936  -0.633 197.434
 Approx polarizability: 309.539 -14.723 232.229  43.547  -0.777 230.075

                      1                      2                      3
                      A                      A                      A
 Frequencies --      3.7773                40.8774                48.8416
 Red. masses --      3.6640                 3.9496                 6.2877
 Frc consts  --      0.0000                 0.0039                 0.0088
 IR Inten    --      4.0133                 2.1559                 6.7168

                      4                      5                      6
                      A                      A                      A
 Frequencies --    103.4818               158.5992               177.3548
 Red. masses --      4.7909                 5.7339                 4.4427
 Frc consts  --      0.0302                 0.0850                 0.0823
 IR Inten    --      1.9375                 2.2084                 0.1356

                      7                      8                      9
                      A                      A                      A
 Frequencies --    224.6703               275.9553               279.2444
 Red. masses --      3.3267                 3.9613                 4.3622
 Frc consts  --      0.0989                 0.1777                 0.2004
 IR Inten    --      1.8817                 2.0186                 2.7123

                     10                     11                     12
                      A                      A                      A
 Frequencies --    310.0175               319.4144               330.9510
 Red. masses --      1.2566                 1.6579                 1.1205
 Frc consts  --      0.0712                 0.0997                 0.0723
 IR Inten    --      1.3250                 1.4048               191.2945

                     13                     14                     15
                      A                      A                      A
 Frequencies --    333.8517               347.1786               371.3407
 Red. masses --      1.8164                 1.9007                 3.8620
 Frc consts  --      0.1193                 0.1350                 0.3138
 IR Inten    --      2.1141                 2.6774                 2.7301

                     16                     17                     18
                      A                      A                      A
 Frequencies --    419.2702               423.7211               432.3455
 Red. masses --      3.5632                 3.5131                 3.3449
 Frc consts  --      0.3690                 0.3716                 0.3684
 IR Inten    --      2.6626                 2.5163                 0.0916

                     19                     20                     21
                      A                      A                      A
 Frequencies --    453.9069               483.4025               491.5312
 Red. masses --      4.5664                 3.7909                 3.5321
 Frc consts  --      0.5543                 0.5219                 0.5028
 IR Inten    --     10.5590                 2.2290                 2.8624

                     22                     23                     24
                      A                      A                      A
 Frequencies --    542.1016               562.6169               575.4539
 Red. masses --      3.7502                 2.4004                 2.3203
 Frc consts  --      0.6493                 0.4477                 0.4527
 IR Inten    --      8.9502                47.2607                31.3892

                     25                     26                     27
                      A                      A                      A
 Frequencies --    648.5333               652.7906               655.9246
 Red. masses --      6.6830                 5.6498                 6.8468
 Frc consts  --      1.6561                 1.4185                 1.7356
 IR Inten    --      1.8365                 4.2664                 0.1661

                     28                     29                     30
                      A                      A                      A
 Frequencies --    736.1755               753.3201               767.6590
 Red. masses --      4.1966                 3.8740                 2.7398
 Frc consts  --      1.3400                 1.2953                 0.9513
 IR Inten    --      9.5010                 5.4146                17.8525

                     31                     32                     33
                      A                      A                      A
 Frequencies --    817.0245               825.9387               840.1750
 Red. masses --      1.2561                 1.2630                 1.7843
 Frc consts  --      0.4940                 0.5076                 0.7421
 IR Inten    --      2.3030                 3.2467                52.8856

                     34                     35                     36
                      A                      A                      A
 Frequencies --    842.5878               847.1785               852.2280
 Red. masses --      2.2285                 5.6473                 5.0989
 Frc consts  --      0.9322                 2.3880                 2.1819
 IR Inten    --     75.7836                13.8751                15.7409

                     37                     38                     39
                      A                      A                      A
 Frequencies --    925.7917               943.3704               947.5186
 Red. masses --      1.9343                 1.4667                 1.2752
 Frc consts  --      0.9768                 0.7691                 0.6746
 IR Inten    --      4.6838                 1.2493                 3.1342

                     40                     41                     42
                      A                      A                      A
 Frequencies --    949.2197               956.2995               957.9144
 Red. masses --      1.3070                 1.3892                 1.4024
 Frc consts  --      0.6938                 0.7485                 0.7582
 IR Inten    --      0.5530                 1.0940                 1.5154

                     43                     44                     45
                      A                      A                      A
 Frequencies --   1003.2498              1028.0170              1032.5202
 Red. masses --      2.8615                 1.7091                 1.8558
 Frc consts  --      1.6969                 1.0642                 1.1657
 IR Inten    --      6.4654                 3.1960                 9.4224

                     46                     47                     48
                      A                      A                      A
 Frequencies --   1100.6872              1121.9605              1130.2009
 Red. masses --      1.9000                 1.6846                 2.1441
 Frc consts  --      1.3562                 1.2494                 1.6136
 IR Inten    --     19.8663                10.4361                 5.4477

                     49                     50                     51
                      A                      A                      A
 Frequencies --   1144.1054              1171.5734              1199.3562
 Red. masses --      1.6434                 1.8701                 1.2215
 Frc consts  --      1.2675                 1.5123                 1.0352
 IR Inten    --     14.1396                14.7406               136.1578

                     52                     53                     54
                      A                      A                      A
 Frequencies --   1205.3346              1216.3429              1258.0992
 Red. masses --      1.1864                 1.4067                 3.4909
 Frc consts  --      1.0155                 1.2262                 3.2555
 IR Inten    --    131.9320               161.0850                18.9976

                     55                     56                     57
                      A                      A                      A
 Frequencies --   1262.8598              1277.9398              1300.0927
 Red. masses --      3.7493                 2.9796                 3.3184
 Frc consts  --      3.5230                 2.8670                 3.3047
 IR Inten    --     56.5551                26.1135               170.5626

                     58                     59                     60
                      A                      A                      A
 Frequencies --   1339.2541              1346.0300              1386.7660
 Red. masses --      1.7384                 2.2998                 1.9282
 Frc consts  --      1.8371                 2.4550                 2.1848
 IR Inten    --     45.6529                28.1331                30.6447

                     61                     62                     63
                      A                      A                      A
 Frequencies --   1406.2188              1410.7850              1422.1852
 Red. masses --      2.7658                 1.3613                 1.2527
 Frc consts  --      3.2223                 1.5963                 1.4929
 IR Inten    --    258.5432                54.1997                 3.9399

                     64                     65                     66
                      A                      A                      A
 Frequencies --   1461.1140              1475.9095              1511.5544
 Red. masses --      3.3516                 2.6613                 1.0573
 Frc consts  --      4.2157                 3.4156                 1.4234
 IR Inten    --     29.4387                61.2672                 4.6342

                     67                     68                     69
                      A                      A                      A
 Frequencies --   1517.1842              1523.4835              1525.3193
 Red. masses --      1.0646                 1.0653                 1.0614
 Frc consts  --      1.4438                 1.4567                 1.4549
 IR Inten    --     11.0934                 6.6223                16.5329

                     70                     71                     72
                      A                      A                      A
 Frequencies --   1553.3875              1559.7841              1567.1412
 Red. masses --      3.8691                 2.5322                 3.9128
 Frc consts  --      5.5007                 3.6298                 5.6618
 IR Inten    --    396.1250               116.0100               297.4523

                     73                     74                     75
                      A                      A                      A
 Frequencies --   1643.3809              1652.2362              1671.5792
 Red. masses --      5.5565                 5.6844                 5.7843
 Frc consts  --      8.8415                 9.1428                 9.5226
 IR Inten    --     29.9210               354.5852                63.5740

                     76                     77                     78
                      A                      A                      A
 Frequencies --   3057.7930              3063.5727              3124.9568
 Red. masses --      1.0354                 1.0359                 1.1010
 Frc consts  --      5.7042                 5.7284                 6.3345
 IR Inten    --     45.0351                55.0107                31.6668

                     79                     80                     81
                      A                      A                      A
 Frequencies --   3130.6918              3134.5165              3142.8519
 Red. masses --      1.1020                 1.1029                 1.1008
 Frc consts  --      6.3640                 6.3843                 6.4060
 IR Inten    --    105.4425                75.3160                46.5924

                     82                     83                     84
                      A                      A                      A
 Frequencies --   3147.6146              3156.2235              3172.5399
 Red. masses --      1.0872                 1.0874                 1.0923
 Frc consts  --      6.3465                 6.3824                 6.4773
 IR Inten    --     61.6058                58.0098               101.9117

                     85                     86                     87
                      A                      A                      A
 Frequencies --   3190.9677              3193.6378              3206.8711
 Red. masses --      1.0872                 1.0899                 1.0935
 Frc consts  --      6.5223                 6.5497                 6.6257
 IR Inten    --     25.0674                51.3853                30.3476

                     88                     89                     90
                      A                      A                      A
 Frequencies --   3218.3709              3234.3069              3724.3730
 Red. masses --      1.0875                 1.0927                 1.0662
 Frc consts  --      6.6367                 6.7344                 8.7138
 IR Inten    --     15.0474                30.0290               183.2653

 - Thermochemistry -
 -------------------
 Temperature   298.150 Kelvin.  Pressure   1.00000 Atm.
 Atom     1 has atomic number  6 and mass  12.00000

 Molecular mass:   227.10720 amu.
 Principal axes and moments of inertia in atomic units:
                           1         2         3
     Eigenvalues --  2100.774716891.584807759.56662
           X            0.99996   0.00835   0.00295
           Y           -0.00833   0.99993  -0.00799
           Z           -0.00301   0.00796   0.99996
 This molecule is an asymmetric top.
 Rotational symmetry number  1.
 Warning -- assumption of classical behavior for rotation
           may cause significant error
 Rotational temperatures (Kelvin)      0.04123     0.01257     0.01116
 Rotational constants (GHZ):           0.85908     0.26188     0.23258
 Zero-point vibrational energy     687580.6 (Joules/Mol)
                                  164.33570 (Kcal/Mol)
 Warning -- explicit consideration of  24 degrees of freedom as
           vibrations may cause significant error
 Vibrational temperatures:      5.43    58.81    70.27   148.89   228.19
          (Kelvin)            255.17   323.25   397.04   401.77   446.05
                              459.57   476.16   480.34   499.51   534.28
                              603.24   609.64   622.05   653.07   695.51
                              707.20   779.96   809.48   827.95   933.09
                              939.22   943.73  1059.19  1083.86  1104.49
                             1175.52  1188.34  1208.82  1212.30  1218.90
                             1226.17  1332.01  1357.30  1363.27  1365.72
                             1375.90  1378.23  1443.45  1479.09  1485.57
                             1583.64  1614.25  1626.11  1646.11  1685.63
                             1725.61  1734.21  1750.05  1810.12  1816.97
                             1838.67  1870.54  1926.89  1936.64  1995.25
                             2023.24  2029.80  2046.21  2102.22  2123.50
                             2174.79  2182.89  2191.95  2194.59  2234.98
                             2244.18  2254.77  2364.46  2377.20  2405.03
                             4399.48  4407.80  4496.12  4504.37  4509.87
                             4521.86  4528.72  4541.10  4564.58  4591.09
                             4594.93  4613.97  4630.52  4653.45  5358.54

 Zero-point correction=                           0.261886 (Hartree/Particle)
 Thermal correction to Energy=                    0.276892
 Thermal correction to Enthalpy=                  0.277837
 Thermal correction to Gibbs Free Energy=         0.217486
 Sum of electronic and zero-point Energies=           -730.934314
 Sum of electronic and thermal Energies=              -730.919307
 Sum of electronic and thermal Enthalpies=            -730.918363
 Sum of electronic and thermal Free Energies=         -730.978713

                     E (Thermal)             CV                S
                      KCal/Mol        Cal/Mol-Kelvin    Cal/Mol-Kelvin
 Total                  173.753             60.139            127.018
 Electronic               0.000              0.000              0.000
 Translational            0.889              2.981             42.163
 Rotational               0.889              2.981             33.085
 Vibrational            171.975             54.178             51.770
 Vibration     1          0.593              1.987              9.946
 Vibration     2          0.594              1.981              5.216
 Vibration     3          0.595              1.978              4.864
 Vibration     4          0.605              1.946              3.388
 Vibration     5          0.621              1.893              2.566
 Vibration     6          0.628              1.870              2.356
 Vibration     7          0.649              1.803              1.921
 Vibration     8          0.678              1.718              1.559
 Vibration     9          0.680              1.712              1.538
 Vibration    10          0.699              1.655              1.362
 Vibration    11          0.705              1.636              1.313
 Vibration    12          0.713              1.614              1.255
 Vibration    13          0.715              1.608              1.241
 Vibration    14          0.725              1.581              1.179
 Vibration    15          0.743              1.531              1.074
 Vibration    16          0.782              1.428              0.894
 Vibration    17          0.786              1.419              0.879
 Vibration    18          0.793              1.400              0.851
 Vibration    19          0.812              1.352              0.784
 Vibration    20          0.840              1.287              0.701
 Vibration    21          0.847              1.269              0.680
 Vibration    22          0.897              1.157              0.561
 Vibration    23          0.918              1.112              0.519
 Vibration    24          0.932              1.084              0.494

                           ! Non-Optimized Parameters !
 Normal termination of Gaussian 16 at Sun Jul 11 16:24:56 2021.

 ----------------------------------------------------------------------
 #p b3lyp/6-31G(d) scrf=(iefpcm,read,solvent=water) geom=allcheck guess
 =read
 ----------------------------------------------------------------------

 Structure from the checkpoint file:  "SET_328_BBB212_conf1.geo_225_060.chk"
 -----------------------------------------
 SET_328_BBB212_conf1.geo_225_060 geometry
 -----------------------------------------
 Charge = -1 Multiplicity = 1

 SCF Done:  E(RB3LYP) =  -731.196199302     A.U. after    1 cycles
 Normal termination of Gaussian 16 at Sun Jul 11 16:25:04 2021.

 -----------------------------
 #p B3LYP/6-31G* geom=allcheck
 -----------------------------

 Structure from the checkpoint file:  "SET_328_BBB212_conf1.geo_225_060.chk"
 -----------------------------------------
 SET_328_BBB212_conf1.geo_225_060 geometry
 -----------------------------------------
 Charge = -1 Multiplicity = 1

 SCF Done:  E(RB3LYP) =  -731.090650569     A.U. after   19 cycles

 The electronic state is 1-A.
 Alpha  occ. eigenvalues --  -19.09109 -18.87199 -10.15012 -10.09109 -10.08595
 Alpha  occ. eigenvalues --  -10.08456 -10.08353 -10.08219 -10.08005 -10.06441
 Alpha  occ. eigenvalues --  -10.06049 -10.03749 -10.01879 -10.01706 -10.01219
 Alpha  occ. eigenvalues --   -9.99281  -9.99116  -0.97001  -0.75734  -0.75090
 Alpha  occ. eigenvalues --   -0.70054  -0.64788  -0.64537  -0.61911  -0.57743
 Alpha  occ. eigenvalues --   -0.55945  -0.54013  -0.52142  -0.50218  -0.45575
 Alpha  occ. eigenvalues --   -0.44603  -0.42328  -0.39585  -0.37660  -0.36266
 Alpha  occ. eigenvalues --   -0.34546  -0.33698  -0.32080  -0.31319  -0.30735
 Alpha  occ. eigenvalues --   -0.29691  -0.28297  -0.27772  -0.27354  -0.26523
 Alpha  occ. eigenvalues --   -0.25910  -0.24346  -0.23871  -0.23487  -0.22203
 Alpha  occ. eigenvalues --   -0.21386  -0.19443  -0.18837  -0.16229  -0.16112
 Alpha  occ. eigenvalues --   -0.14994  -0.12312  -0.10916  -0.07350  -0.01517
 Alpha  occ. eigenvalues --    0.00763
 Alpha virt. eigenvalues --    0.09928   0.11738   0.14653   0.17533   0.19319
 Alpha virt. eigenvalues --    0.20311   0.21564   0.23291   0.25196   0.25399
 Alpha virt. eigenvalues --    0.25550   0.26044   0.26964   0.27866   0.29975

 Mulliken charges:
               1
     1  C   -0.445927
     2  H    0.113587
     3  H    0.135127
     4  H    0.136103
     5  C   -0.044466
     6  C   -0.446126
     7  H    0.101470
     8  H    0.142047
     9  H    0.138412
    10  C    0.183018
    11  C   -0.204091
    12  C   -0.167123
    13  C    0.341716
    14  O   -0.660900
    15  H    0.394910
    16  C   -0.200322
    17  C   -0.178185
    18  H    0.143064
    19  H    0.094712
    20  H    0.105826
    21  H    0.111239
    22  C    0.135262
    23  C   -0.190950
    24  H    0.063711
    25  C   -0.225790
    26  H    0.053099
    27  C    0.421044
    28  O   -0.716523
    29  C   -0.233250
    30  H    0.049114
    31  C   -0.205182
    32  H    0.055375
 Sum of Mulliken charges =  -1.00000

 Dipole moment (field-independent basis, Debye):
    X=            -13.4378    Y=              4.0035    Z=              1.7333  Tot=             14.1283
 Quadrupole moment (field-independent basis, Debye-Ang):
   XX=           -179.2220   YY=           -112.3785   ZZ=           -101.7041
   XY=             26.9235   XZ=             -1.6704   YZ=             -5.7678

 Normal termination of Gaussian 16 at Sun Jul 11 16:25:55 2021.
 Gaussian 16:  ES64L-G16RevB.01 20-Dec-2017

 --------------------------------------------------------
 #p mp2/aug-cc-pVDZ scf=tight maxdisk=180GB geom=allcheck
 --------------------------------------------------------

 Structure from the checkpoint file:  "SET_328_BBB212_conf1.geo_225_060.chk"
 -----------------------------------------
 SET_328_BBB212_conf1.geo_225_060 geometry
 -----------------------------------------
 Charge = -1 Multiplicity = 1

                         Standard orientation:
 ---------------------------------------------------------------------
 Center     Atomic      Atomic             Coordinates (Angstroms)
 Number     Number       Type             X           Y           Z
 ---------------------------------------------------------------------
      1          6           0        0.010951    2.359914    1.258664
      2          1           0       -0.886355    2.984943    1.229068
      3          1           0        0.882819    3.020560    1.293437
      4          1           0       -0.011067    1.779320    2.185993
      5          6           0        0.055558    1.452563    0.010301
      6          6           0        0.104804    2.376653   -1.224175
      7          1           0       -0.743158    3.069302   -1.244898
      8          1           0        0.097930    1.804463   -2.154796
      9          1           0        1.023792    2.969057   -1.199416
     10          6           0       -1.216209    0.584348    0.008613
     11          6           0       -2.239017    0.722072   -0.938629
     12          6           0       -3.389102   -0.068054   -0.899564
     13          6           0       -3.549501   -1.024106    0.104666
     14          8           0       -4.694168   -1.770566    0.093737
     15          1           0       -4.676542   -2.402461    0.834098
     16          6           0       -2.542438   -1.179816    1.066422
     17          6           0       -1.399821   -0.386437    1.006320
     18          1           0       -0.623253   -0.534740    1.750552
     19          1           0       -2.650199   -1.920967    1.853778
     20          1           0       -4.167437    0.048176   -1.645018
     21          1           0       -2.144034    1.454455   -1.731754
     22          6           0        1.301343    0.552797    0.000494
     23          6           0        1.472937   -0.403598   -1.019300
     24          1           0        0.695277   -0.511448   -1.774906
     25          6           0        2.591739   -1.221993   -1.092703
     26          1           0        2.679233   -1.948159   -1.898289
     27          6           0        3.661982   -1.157788   -0.134652
     28          8           0        4.700597   -1.918610   -0.195204
     29          6           0        3.464823   -0.175688    0.891090
     30          1           0        4.238848   -0.076289    1.650146
     31          6           0        2.334171    0.638677    0.947054
     32          1           0        2.259391    1.359928    1.756140
 ---------------------------------------------------------------------

 SCF Done:  E(RHF) =  -726.570250947     A.U. after   17 cycles
