 Gaussian 16, Revision B.01,

 -----------------------------------------------------------
 #p b3lyp/6-31G(d) opt freq scrf=(iefpcm,read,solvent=water)
 -----------------------------------------------------------

 -----------------------------------------
 SET_328_BBB299_conf1.geo_000_000 geometry
 -----------------------------------------
 Symbolic Z-matrix:
 Charge = -1 Multiplicity = 1

 SCF Done:  E(RB3LYP) =  -495.569661151     A.U. after   13 cycles
 SCF Done:  E(RB3LYP) =  -495.590947501     A.U. after   12 cycles
 SCF Done:  E(RB3LYP) =  -495.592612212     A.U. after   12 cycles
 SCF Done:  E(RB3LYP) =  -495.577695728     A.U. after   13 cycles
 SCF Done:  E(RB3LYP) =  -495.588740135     A.U. after   12 cycles
 SCF Done:  E(RB3LYP) =  -495.597323227     A.U. after   10 cycles
 SCF Done:  E(RB3LYP) =  -495.597468743     A.U. after   11 cycles
 SCF Done:  E(RB3LYP) =  -495.597124514     A.U. after   13 cycles
 SCF Done:  E(RB3LYP) =  -495.597968412     A.U. after   11 cycles
 SCF Done:  E(RB3LYP) =  -495.598036293     A.U. after   10 cycles
 SCF Done:  E(RB3LYP) =  -495.598046272     A.U. after    9 cycles
 SCF Done:  E(RB3LYP) =  -495.598047396     A.U. after    8 cycles
 Optimization completed.
    -- Stationary point found.
 Normal termination of Gaussian 16 at Sun Jul 11 16:14:00 2021.

 --------------------------------------------------------------------
 #P Geom=AllCheck Guess=TCheck SCRF=Check GenChk RB3LYP/6-31G(d) Freq
 --------------------------------------------------------------------

 Structure from the checkpoint file:  "SET_328_BBB299_conf1.geo_000_000.chk"
 -----------------------------------------
 SET_328_BBB299_conf1.geo_000_000 geometry
 -----------------------------------------
 Charge = -1 Multiplicity = 1

 SCF Done:  E(RB3LYP) =  -495.598047396     A.U. after    1 cycles

  Exact polarizability: 146.463  -1.612 137.927  -0.013  -0.013  38.507
 Approx polarizability: 166.395  -3.765 175.495  -0.018  -0.013  46.305

                      1                      2                      3
                      A                      A                      A
 Frequencies --     94.6624               149.7459               256.8394
 Red. masses --     10.6473                 5.6227                 5.6839
 Frc consts  --      0.0562                 0.0743                 0.2209
 IR Inten    --      1.1028                 1.9254                 1.4363

                      4                      5                      6
                      A                      A                      A
 Frequencies --    272.9563               376.9607               442.0181
 Red. masses --      7.2539                 8.0506                 3.6853
 Frc consts  --      0.3184                 0.6740                 0.4242
 IR Inten    --     15.5107                36.9831                 0.3762

                      7                      8                      9
                      A                      A                      A
 Frequencies --    443.8063               542.3635               547.2242
 Red. masses --      9.4284                 6.3210                 3.4724
 Frc consts  --      1.0941                 1.0955                 0.6126
 IR Inten    --      5.9480                 6.8084                 8.4550

                     10                     11                     12
                      A                      A                      A
 Frequencies --    571.7495               677.1598               700.1793
 Red. masses --      6.9769                 7.0696                 4.5525
 Frc consts  --      1.3438                 1.9100                 1.3150
 IR Inten    --      6.3502                47.1772                15.9056

                     13                     14                     15
                      A                      A                      A
 Frequencies --    767.5218               799.0000               813.9150
 Red. masses --      1.7538                 2.7823                 8.7301
 Frc consts  --      0.6087                 1.0465                 3.4075
 IR Inten    --     80.8183                 5.7089                61.7972

                     16                     17                     18
                      A                      A                      A
 Frequencies --    863.2471               865.8757               875.0695
 Red. masses --      1.1750                 6.5425                 1.2928
 Frc consts  --      0.5159                 2.8901                 0.5833
 IR Inten    --    125.9196                53.3838                15.3096

                     19                     20                     21
                      A                      A                      A
 Frequencies --    969.1213               986.8780              1057.7475
 Red. masses --      1.3424                 1.2374                 2.1591
 Frc consts  --      0.7428                 0.7101                 1.4233
 IR Inten    --      2.2942                 0.1497                23.8926

                     22                     23                     24
                      A                      A                      A
 Frequencies --   1110.1177              1162.5469              1180.4721
 Red. masses --      2.6791                 1.6255                 1.2275
 Frc consts  --      1.9452                 1.2944                 1.0078
 IR Inten    --      7.3999                37.2431                 6.8977

                     25                     26                     27
                      A                      A                      A
 Frequencies --   1257.7233              1297.8858              1350.4174
 Red. masses --      1.6903                 4.1547                 4.2506
 Frc consts  --      1.5754                 4.1235                 4.5671
 IR Inten    --     10.3221               167.5526                66.1307

                     28                     29                     30
                      A                      A                      A
 Frequencies --   1376.6039              1449.2709              1504.5429
 Red. masses --      6.0051                 1.7415                 3.1130
 Frc consts  --      6.7048                 2.1552                 4.1518
 IR Inten    --    595.0355               196.6592               219.9999

                     31                     32                     33
                      A                      A                      A
 Frequencies --   1532.1387              1640.2713              1644.7565
 Red. masses --      2.3173                 7.5303                 4.4713
 Frc consts  --      3.2049                11.9369                 7.1267
 IR Inten    --    337.8497               527.9747                83.7555

                     34                     35                     36
                      A                      A                      A
 Frequencies --   1695.1698              2869.3865              3195.7965
 Red. masses --      4.1453                 1.0721                 1.0856
 Frc consts  --      7.0184                 5.2007                 6.5324
 IR Inten    --    242.6600              1192.8815                 4.9848

                     37                     38                     39
                      A                      A                      A
 Frequencies --   3208.9116              3217.4311              3230.0736
 Red. masses --      1.0896                 1.0943                 1.0928
 Frc consts  --      6.6107                 6.6740                 6.7177
 IR Inten    --     31.7474                42.4561                26.1135

 - Thermochemistry -
 -------------------
 Temperature   298.150 Kelvin.  Pressure   1.00000 Atm.
 Atom     1 has atomic number  8 and mass  15.99491

 Molecular mass:   137.02387 amu.
 Principal axes and moments of inertia in atomic units:
                           1         2         3
     Eigenvalues --   756.452691461.293862217.74636
           X            0.99981  -0.01966  -0.00001
           Y            0.01966   0.99981  -0.00002
           Z            0.00001   0.00002   1.00000
 This molecule is an asymmetric top.
 Rotational symmetry number  1.
 Warning -- assumption of classical behavior for rotation
           may cause significant error
 Rotational temperatures (Kelvin)      0.11450     0.05927     0.03905
 Rotational constants (GHZ):           2.38580     1.23503     0.81377
 Zero-point vibrational energy     281107.8 (Joules/Mol)
                                   67.18638 (Kcal/Mol)
 Warning -- explicit consideration of  10 degrees of freedom as
           vibrations may cause significant error
 Vibrational temperatures:    136.20   215.45   369.53   392.72   542.36
          (Kelvin)            635.97   638.54   780.34   787.33   822.62
                              974.28  1007.40  1104.29  1149.58  1171.04
                             1242.02  1245.80  1259.03  1394.35  1419.90
                             1521.86  1597.21  1672.65  1698.44  1809.58
                             1867.37  1942.95  1980.63  2085.18  2164.70
                             2204.41  2359.98  2366.44  2438.97  4128.41
                             4598.04  4616.91  4629.17  4647.36

 Zero-point correction=                           0.107068 (Hartree/Particle)
 Thermal correction to Energy=                    0.114551
 Thermal correction to Enthalpy=                  0.115495
 Thermal correction to Gibbs Free Energy=         0.074596
 Sum of electronic and zero-point Energies=           -495.490979
 Sum of electronic and thermal Energies=              -495.483497
 Sum of electronic and thermal Enthalpies=            -495.482552
 Sum of electronic and thermal Free Energies=         -495.523452

                     E (Thermal)             CV                S
                      KCal/Mol        Cal/Mol-Kelvin    Cal/Mol-Kelvin
 Total                   71.882             29.042             86.080
 Electronic               0.000              0.000              0.000
 Translational            0.889              2.981             40.657
 Rotational               0.889              2.981             29.285
 Vibrational             70.104             23.081             16.138
 Vibration     1          0.603              1.953              3.561
 Vibration     2          0.618              1.903              2.675
 Vibration     3          0.666              1.751              1.683
 Vibration     4          0.676              1.723              1.577
 Vibration     5          0.748              1.519              1.051
 Vibration     6          0.802              1.378              0.820
 Vibration     7          0.803              1.375              0.815
 Vibration     8          0.897              1.156              0.560
 Vibration     9          0.902              1.146              0.550
 Vibration    10          0.928              1.092              0.501

                           ! Non-Optimized Parameters !
 Normal termination of Gaussian 16 at Sun Jul 11 16:15:36 2021.

 ----------------------------------------------------------------------
 #p b3lyp/6-31G(d) scrf=(iefpcm,read,solvent=water) geom=allcheck guess
 =read
 ----------------------------------------------------------------------

 Structure from the checkpoint file:  "SET_328_BBB299_conf1.geo_000_000.chk"
 -----------------------------------------
 SET_328_BBB299_conf1.geo_000_000 geometry
 -----------------------------------------
 Charge = -1 Multiplicity = 1

 SCF Done:  E(RB3LYP) =  -495.598047396     A.U. after    1 cycles
 Normal termination of Gaussian 16 at Sun Jul 11 16:15:40 2021.

 -----------------------------
 #p B3LYP/6-31G* geom=allcheck
 -----------------------------

 Structure from the checkpoint file:  "SET_328_BBB299_conf1.geo_000_000.chk"
 -----------------------------------------
 SET_328_BBB299_conf1.geo_000_000 geometry
 -----------------------------------------
 Charge = -1 Multiplicity = 1

 SCF Done:  E(RB3LYP) =  -495.500928403     A.U. after   15 cycles
 Normal termination of Gaussian 16 at Sun Jul 11 16:15:51 2021.
 Gaussian 16:  ES64L-G16RevB.01 20-Dec-2017

 --------------------------------------------------------
 #p mp2/aug-cc-pVDZ scf=tight maxdisk=180GB geom=allcheck
 --------------------------------------------------------

 Structure from the checkpoint file:  "SET_328_BBB299_conf1.geo_000_000.chk"
 -----------------------------------------
 SET_328_BBB299_conf1.geo_000_000 geometry
 -----------------------------------------
 Charge = -1 Multiplicity = 1

                         Standard orientation:
 ---------------------------------------------------------------------
 Center     Atomic      Atomic             Coordinates (Angstroms)
 Number     Number       Type             X           Y           Z
 ---------------------------------------------------------------------
      1          8           0       -2.390667    0.729196    0.000075
      2          6           0       -1.739116   -0.377708    0.000019
      3          8           0       -2.269176   -1.513408   -0.000711
      4          6           0       -0.230403   -0.280294    0.000556
      5          6           0        0.426579    0.973894    0.000027
      6          8           0       -0.264676    2.133964    0.000400
      7          1           0       -1.239021    1.841092   -0.000077
      8          6           0        1.830399    1.027998   -0.000640
      9          1           0        2.312186    2.000497   -0.001091
     10          6           0        2.576434   -0.146772   -0.000324
     11          1           0        3.660814   -0.089704   -0.000529
     12          6           0        1.939914   -1.394434    0.000394
     13          1           0        2.523707   -2.308908    0.000296
     14          6           0        0.548762   -1.444056    0.000401
     15          1           0        0.023049   -2.392761    0.000690
 ---------------------------------------------------------------------

 SCF Done:  E(RHF) =  -492.711596630     A.U. after   16 cycles
 E2 =    -0.1544265517D+01 EUMP2 =    -0.49425586214687D+03

 The electronic state is 1-A.
 Alpha  occ. eigenvalues --  -20.43089 -20.34500 -20.33559 -11.18623 -11.17726
 Alpha  occ. eigenvalues --  -11.13014 -11.11498 -11.10838 -11.10814 -11.09648
 Alpha  occ. eigenvalues --   -1.25148  -1.20534  -1.10426  -1.01641  -0.89453
 Alpha  occ. eigenvalues --   -0.87262  -0.72527  -0.68806  -0.61709  -0.56607
 Alpha  occ. eigenvalues --   -0.54569  -0.50951  -0.47498  -0.46560  -0.44451
 Alpha  occ. eigenvalues --   -0.43355  -0.41998  -0.40130  -0.38787  -0.36138
 Alpha  occ. eigenvalues --   -0.34446  -0.24944  -0.24362  -0.23196  -0.20922
 Alpha  occ. eigenvalues --   -0.17670
 Alpha virt. eigenvalues --    0.11253   0.12190   0.13358   0.15397   0.16504
 Alpha virt. eigenvalues --    0.20745   0.20878   0.21581   0.21897   0.22811
 Alpha virt. eigenvalues --    0.23169   0.23216   0.23516   0.24010   0.25217

 Mulliken charges:
               1
     1  O   -1.080794
     2  C    0.842199
     3  O   -0.963921
     4  C    0.874719
     5  C    0.165776
     6  O   -1.024660
     7  H    0.287742
     8  C    0.794505
     9  H   -0.522352
    10  C    0.457786
    11  H   -0.462618
    12  C    0.438543
    13  H   -0.461988
    14  C    0.249796
    15  H   -0.594732
 Sum of Mulliken charges =  -1.00000

 Dipole moment (field-independent basis, Debye):
    X=              8.1366    Y=              0.2118    Z=              0.0005  Tot=              8.1393
 Quadrupole moment (field-independent basis, Debye-Ang):
   XX=            -86.6616   YY=            -72.3967   ZZ=            -63.3573
   XY=             -4.7424   XZ=             -0.0061   YZ=             -0.0072

 Normal termination of Gaussian 16 at Sun Jul 11 16:17:16 2021.
