 Gaussian 16, Revision B.01,

 -----------------------------------------------------------
 #p b3lyp/6-31G(d) opt freq scrf=(iefpcm,read,solvent=water)
 -----------------------------------------------------------

 -----------------------------------------
 SET_328_BBB299_conf1.geo_000_180 geometry
 -----------------------------------------
 Symbolic Z-matrix:
 Charge = -1 Multiplicity = 1

 SCF Done:  E(RB3LYP) =  -495.549287853     A.U. after   13 cycles
 SCF Done:  E(RB3LYP) =  -495.571058151     A.U. after   11 cycles
 SCF Done:  E(RB3LYP) =  -495.571663745     A.U. after   12 cycles
 SCF Done:  E(RB3LYP) =  -495.573872736     A.U. after   12 cycles
 SCF Done:  E(RB3LYP) =  -495.577395004     A.U. after   11 cycles
 SCF Done:  E(RB3LYP) =  -495.578148797     A.U. after   10 cycles
 SCF Done:  E(RB3LYP) =  -495.578144225     A.U. after   10 cycles
 SCF Done:  E(RB3LYP) =  -495.578153579     A.U. after    8 cycles
 SCF Done:  E(RB3LYP) =  -495.578154352     A.U. after    8 cycles
 SCF Done:  E(RB3LYP) =  -495.578154979     A.U. after    8 cycles
 SCF Done:  E(RB3LYP) =  -495.578155746     A.U. after    8 cycles
 SCF Done:  E(RB3LYP) =  -495.578156693     A.U. after    8 cycles
 SCF Done:  E(RB3LYP) =  -495.578157596     A.U. after    8 cycles
 SCF Done:  E(RB3LYP) =  -495.578157780     A.U. after    7 cycles
 Optimization completed.
    -- Stationary point found.
 Normal termination of Gaussian 16 at Sun Jul 11 16:14:24 2021.

 --------------------------------------------------------------------
 #P Geom=AllCheck Guess=TCheck SCRF=Check GenChk RB3LYP/6-31G(d) Freq
 --------------------------------------------------------------------

 Structure from the checkpoint file:  "SET_328_BBB299_conf1.geo_000_180.chk"
 -----------------------------------------
 SET_328_BBB299_conf1.geo_000_180 geometry
 -----------------------------------------
 Charge = -1 Multiplicity = 1

 SCF Done:  E(RB3LYP) =  -495.578157780     A.U. after    1 cycles

  Exact polarizability: 141.777  -2.547 140.117   0.048   0.010  38.727
 Approx polarizability: 161.740  -6.176 174.351   0.063   0.645  46.563

                      1                      2                      3
                      A                      A                      A
 Frequencies --     22.8094               126.7971               245.8686
 Red. masses --     11.1319                 5.0707                 8.1628
 Frc consts  --      0.0034                 0.0480                 0.2907
 IR Inten    --      0.6830                 2.4690                 1.3162

                      4                      5                      6
                      A                      A                      A
 Frequencies --    252.1073               356.2537               390.8419
 Red. masses --      4.5788                 7.1970                 8.5702
 Frc consts  --      0.1715                 0.5382                 0.7713
 IR Inten    --      0.3147                17.5226                 3.0512

                      7                      8                      9
                      A                      A                      A
 Frequencies --    420.8649               448.5207               527.8445
 Red. masses --      1.1490                 3.5556                 5.0156
 Frc consts  --      0.1199                 0.4214                 0.8234
 IR Inten    --    164.9363                 7.6389                16.9526

                     10                     11                     12
                      A                      A                      A
 Frequencies --    549.3566               571.8143               666.5761
 Red. masses --      3.5926                 7.8602                 6.8506
 Frc consts  --      0.6388                 1.5142                 1.7934
 IR Inten    --      9.6642                13.3611                30.1237

                     13                     14                     15
                      A                      A                      A
 Frequencies --    697.6780               767.8805               802.6339
 Red. masses --      4.1956                 1.5612                 4.2911
 Frc consts  --      1.2033                 0.5424                 1.6287
 IR Inten    --     19.6726                85.5314                36.6529

                     16                     17                     18
                      A                      A                      A
 Frequencies --    803.9513               860.4704               863.3606
 Red. masses --      4.8622                 6.4765                 1.5913
 Frc consts  --      1.8516                 2.8253                 0.6989
 IR Inten    --     41.4817                80.1196                 4.2105

                     19                     20                     21
                      A                      A                      A
 Frequencies --    964.3932               987.9638              1060.4083
 Red. masses --      1.3397                 1.2658                 2.1077
 Frc consts  --      0.7341                 0.7279                 1.3964
 IR Inten    --      1.2197                 0.3433                11.2848

                     22                     23                     24
                      A                      A                      A
 Frequencies --   1097.1513              1153.2591              1174.5368
 Red. masses --      2.6525                 2.0177                 1.1779
 Frc consts  --      1.8812                 1.5811                 0.9574
 IR Inten    --     66.6254                88.5455                14.2097

                     25                     26                     27
                      A                      A                      A
 Frequencies --   1209.4058              1280.2964              1308.8638
 Red. masses --      1.3629                 3.2120                 1.7593
 Frc consts  --      1.1745                 3.1021                 1.7757
 IR Inten    --     96.8853               107.5061               150.8415

                     28                     29                     30
                      A                      A                      A
 Frequencies --   1370.4794              1390.4164              1484.3063
 Red. masses --      4.1125                 7.7947                 2.4459
 Frc consts  --      4.5509                 8.8785                 3.1749
 IR Inten    --    222.6249               469.0346                70.4314

                     31                     32                     33
                      A                      A                      A
 Frequencies --   1526.8199              1629.2086              1650.3855
 Red. masses --      2.5965                 6.4345                 6.2174
 Frc consts  --      3.5662                10.0628                 9.9777
 IR Inten    --     33.2737                93.9571                66.3919

                     34                     35                     36
                      A                      A                      A
 Frequencies --   1669.1046              3181.9984              3200.8013
 Red. masses --      9.7819                 1.0887                 1.0884
 Frc consts  --     16.0561                 6.4949                 6.5697
 IR Inten    --    797.8033                29.1467                24.5485

                     37                     38                     39
                      A                      A                      A
 Frequencies --   3215.8252              3235.3034              3680.9577
 Red. masses --      1.0950                 1.0915                 1.0662
 Frc consts  --      6.6716                 6.7316                 8.5118
 IR Inten    --     42.0405                16.8079               140.6173

 - Thermochemistry -
 -------------------
 Temperature   298.150 Kelvin.  Pressure   1.00000 Atm.
 Atom     1 has atomic number  8 and mass  15.99491

 Molecular mass:   137.02387 amu.
 Principal axes and moments of inertia in atomic units:
                           1         2         3
     Eigenvalues --   784.694631478.045482260.77637
           X            1.00000  -0.00255   0.00007
           Y            0.00255   1.00000  -0.00168
           Z           -0.00007   0.00168   1.00000
 This molecule is an asymmetric top.
 Rotational symmetry number  1.
 Warning -- assumption of classical behavior for rotation
           may cause significant error
 Rotational temperatures (Kelvin)      0.11038     0.05860     0.03831
 Rotational constants (GHZ):           2.29993     1.22103     0.79828
 Zero-point vibrational energy     280210.4 (Joules/Mol)
                                   66.97188 (Kcal/Mol)
 Warning -- explicit consideration of  11 degrees of freedom as
           vibrations may cause significant error
 Vibrational temperatures:     32.82   182.43   353.75   362.73   512.57
          (Kelvin)            562.33   605.53   645.32   759.45   790.40
                              822.71   959.05  1003.80  1104.81  1154.81
                             1156.71  1238.03  1242.18  1387.55  1421.46
                             1525.69  1578.56  1659.28  1689.90  1740.07
                             1842.06  1883.16  1971.81  2000.50  2135.59
                             2196.75  2344.07  2374.54  2401.47  4578.19
                             4605.24  4626.86  4654.88  5296.08

 Zero-point correction=                           0.106726 (Hartree/Particle)
 Thermal correction to Energy=                    0.114765
 Thermal correction to Enthalpy=                  0.115710
 Thermal correction to Gibbs Free Energy=         0.072684
 Sum of electronic and zero-point Energies=           -495.471431
 Sum of electronic and thermal Energies=              -495.463392
 Sum of electronic and thermal Enthalpies=            -495.462448
 Sum of electronic and thermal Free Energies=         -495.505474

                     E (Thermal)             CV                S
                      KCal/Mol        Cal/Mol-Kelvin    Cal/Mol-Kelvin
 Total                   72.016             30.370             90.556
 Electronic               0.000              0.000              0.000
 Translational            0.889              2.981             40.657
 Rotational               0.889              2.981             29.351
 Vibrational             70.239             24.408             20.547
 Vibration     1          0.593              1.985              6.373
 Vibration     2          0.611              1.926              2.994
 Vibration     3          0.660              1.770              1.760
 Vibration     4          0.664              1.759              1.716
 Vibration     5          0.732              1.562              1.138
 Vibration     6          0.759              1.490              0.997
 Vibration     7          0.783              1.425              0.889
 Vibration     8          0.808              1.364              0.800
 Vibration     9          0.883              1.188              0.592
 Vibration    10          0.905              1.141              0.546
 Vibration    11          0.928              1.092              0.501

                           ! Non-Optimized Parameters !
 Normal termination of Gaussian 16 at Sun Jul 11 16:15:57 2021.

 ----------------------------------------------------------------------
 #p b3lyp/6-31G(d) scrf=(iefpcm,read,solvent=water) geom=allcheck guess
 =read
 ----------------------------------------------------------------------

 Structure from the checkpoint file:  "SET_328_BBB299_conf1.geo_000_180.chk"
 -----------------------------------------
 SET_328_BBB299_conf1.geo_000_180 geometry
 -----------------------------------------
 Charge = -1 Multiplicity = 1

 SCF Done:  E(RB3LYP) =  -495.578157780     A.U. after    2 cycles
 Normal termination of Gaussian 16 at Sun Jul 11 16:16:03 2021.

 -----------------------------
 #p B3LYP/6-31G* geom=allcheck
 -----------------------------

 Structure from the checkpoint file:  "SET_328_BBB299_conf1.geo_000_180.chk"
 -----------------------------------------
 SET_328_BBB299_conf1.geo_000_180 geometry
 -----------------------------------------
 Charge = -1 Multiplicity = 1

 SCF Done:  E(RB3LYP) =  -495.454600096     A.U. after   16 cycles
 Normal termination of Gaussian 16 at Sun Jul 11 16:16:14 2021.
 Gaussian 16:  ES64L-G16RevB.01 20-Dec-2017

 --------------------------------------------------------
 #p mp2/aug-cc-pVDZ scf=tight maxdisk=180GB geom=allcheck
 --------------------------------------------------------

 Structure from the checkpoint file:  "SET_328_BBB299_conf1.geo_000_180.chk"
 -----------------------------------------
 SET_328_BBB299_conf1.geo_000_180 geometry
 -----------------------------------------
 Charge = -1 Multiplicity = 1

                         Standard orientation:
 ---------------------------------------------------------------------
 Center     Atomic      Atomic             Coordinates (Angstroms)
 Number     Number       Type             X           Y           Z
 ---------------------------------------------------------------------
      1          8           0       -2.467241    0.786850    0.090859
      2          6           0       -1.813385   -0.287642    0.003764
      3          8           0       -2.315778   -1.446368   -0.080249
      4          6           0       -0.280729   -0.221765    0.002429
      5          6           0        0.490947    0.963932   -0.012160
      6          8           0       -0.115176    2.185943   -0.034779
      7          1           0        0.577220    2.873327   -0.061215
      8          6           0        1.894569    0.890042   -0.010075
      9          1           0        2.468587    1.812567   -0.023920
     10          6           0        2.549611   -0.337307    0.009011
     11          1           0        3.634899   -0.364812    0.011480
     12          6           0        1.806813   -1.519562    0.023687
     13          1           0        2.302710   -2.484610    0.038221
     14          6           0        0.417342   -1.439475    0.017692
     15          1           0       -0.188862   -2.337210    0.022698
 ---------------------------------------------------------------------

 SCF Done:  E(RHF) =  -492.673141051     A.U. after   16 cycles
 E2 =    -0.1541991189D+01 EUMP2 =    -0.49421513224031D+03

 The electronic state is 1-A.
 Alpha  occ. eigenvalues --  -20.47081 -20.30703 -20.30540 -11.18712 -11.15934
 Alpha  occ. eigenvalues --  -11.13321 -11.12041 -11.11197 -11.10935 -11.09880
 Alpha  occ. eigenvalues --   -1.27745  -1.17621  -1.07036  -1.02108  -0.89485
 Alpha  occ. eigenvalues --   -0.87953  -0.71957  -0.70665  -0.60523  -0.59121
 Alpha  occ. eigenvalues --   -0.53338  -0.51366  -0.47052  -0.46292  -0.45954
 Alpha  occ. eigenvalues --   -0.43085  -0.40281  -0.38863  -0.37276  -0.36773
 Alpha  occ. eigenvalues --   -0.34567  -0.22085  -0.21087  -0.20760  -0.19291
 Alpha  occ. eigenvalues --   -0.18607
 Alpha virt. eigenvalues --    0.10752   0.11515   0.12620   0.14791   0.16003
 Alpha virt. eigenvalues --    0.20787   0.21152   0.21410   0.21777   0.22434
 Alpha virt. eigenvalues --    0.22554   0.22798   0.23288   0.24136   0.24657

 Mulliken charges:
               1
     1  O   -0.942469
     2  C    0.860196
     3  O   -0.986300
     4  C    0.584911
     5  C    0.980899
     6  O   -0.939523
     7  H    0.180133
     8  C    0.692853
     9  H   -0.671644
    10  C    0.251340
    11  H   -0.457153
    12  C    0.242955
    13  H   -0.458648
    14  C    0.298980
    15  H   -0.636530
 Sum of Mulliken charges =  -1.00000

 Dipole moment (field-independent basis, Debye):
    X=             11.3218    Y=              1.9511    Z=             -0.0557  Tot=             11.4888
 Quadrupole moment (field-independent basis, Debye-Ang):
   XX=            -92.0234   YY=            -63.8777   ZZ=            -63.5126
   XY=              0.8197   XZ=              0.0289   YZ=             -0.9405

 Normal termination of Gaussian 16 at Sun Jul 11 16:17:37 2021.
