 Gaussian 16, Revision B.01,

 -----------------------------------------------------------
 #p b3lyp/6-31G(d) opt freq scrf=(iefpcm,read,solvent=water)
 -----------------------------------------------------------

 ----------------------------------------
 SET_328_BBB87_conf1.geo_075_075 geometry
 ----------------------------------------
 Symbolic Z-matrix:
 Charge =  1 Multiplicity = 1

 SCF Done:  E(RB3LYP) =  -703.483332014     A.U. after   13 cycles
 SCF Done:  E(RB3LYP) =  -703.505685560     A.U. after   11 cycles
 SCF Done:  E(RB3LYP) =  -703.508198393     A.U. after   11 cycles
 SCF Done:  E(RB3LYP) =  -703.508624306     A.U. after   11 cycles
 SCF Done:  E(RB3LYP) =  -703.508869833     A.U. after   11 cycles
 SCF Done:  E(RB3LYP) =  -703.509034315     A.U. after   11 cycles
 SCF Done:  E(RB3LYP) =  -703.509209861     A.U. after   11 cycles
 SCF Done:  E(RB3LYP) =  -703.509417119     A.U. after   10 cycles
 SCF Done:  E(RB3LYP) =  -703.509495066     A.U. after   11 cycles
 SCF Done:  E(RB3LYP) =  -703.509770019     A.U. after   13 cycles
 SCF Done:  E(RB3LYP) =  -703.512353849     A.U. after    8 cycles
 SCF Done:  E(RB3LYP) =  -703.512339023     A.U. after    9 cycles
 SCF Done:  E(RB3LYP) =  -703.512337626     A.U. after    8 cycles
 SCF Done:  E(RB3LYP) =  -703.512352780     A.U. after    9 cycles
 SCF Done:  E(RB3LYP) =  -703.512353986     A.U. after    8 cycles
 SCF Done:  E(RB3LYP) =  -703.512336302     A.U. after    9 cycles
 Optimization completed.
    -- Stationary point found.
 Normal termination of Gaussian 16 at Sun Jul 11 16:30:35 2021.

 --------------------------------------------------------------------
 #P Geom=AllCheck Guess=TCheck SCRF=Check GenChk RB3LYP/6-31G(d) Freq
 --------------------------------------------------------------------

 Structure from the checkpoint file:  "SET_328_BBB87_conf1.geo_075_075.chk"
 ----------------------------------------
 SET_328_BBB87_conf1.geo_075_075 geometry
 ----------------------------------------
 Charge =  1 Multiplicity = 1

 SCF Done:  E(RB3LYP) =  -703.512336302     A.U. after    1 cycles

  Exact polarizability: 127.461  -2.073 114.323   4.316   1.176  61.286
 Approx polarizability: 145.682  -6.923 140.711   6.203   1.234  70.826

                      1                      2                      3
                      A                      A                      A
 Frequencies --     57.2200               171.6851               187.0589
 Red. masses --      4.2777                 2.3732                 4.0592
 Frc consts  --      0.0083                 0.0412                 0.0837
 IR Inten    --     13.2749                10.5135                42.8528

                      4                      5                      6
                      A                      A                      A
 Frequencies --    270.6238               300.8528               377.8506
 Red. masses --      3.8392                 2.8094                 1.0580
 Frc consts  --      0.1657                 0.1498                 0.0890
 IR Inten    --     30.7489                36.3873                 2.7055

                      7                      8                      9
                      A                      A                      A
 Frequencies --    437.8640               507.8127               584.2633
 Red. masses --      2.5163                 4.4814                 4.9339
 Frc consts  --      0.2842                 0.6809                 0.9923
 IR Inten    --      5.1731                 3.6208                 3.5529

                     10                     11                     12
                      A                      A                      A
 Frequencies --    622.6179               705.6772               748.5953
 Red. masses --      4.9799                 2.9595                 1.2793
 Frc consts  --      1.1374                 0.8683                 0.4224
 IR Inten    --     13.5546                 8.8619                48.8770

                     13                     14                     15
                      A                      A                      A
 Frequencies --    764.9375               860.1386               885.9770
 Red. masses --      7.6041                 2.5699                 3.4320
 Frc consts  --      2.6215                 1.1202                 1.5873
 IR Inten    --      9.8413                 6.1960                34.7474

                     16                     17                     18
                      A                      A                      A
 Frequencies --    904.3329               906.4152               956.9743
 Red. masses --      1.5718                 1.4035                 1.4585
 Frc consts  --      0.7574                 0.6794                 0.7870
 IR Inten    --     45.1048                18.2864                12.7399

                     19                     20                     21
                      A                      A                      A
 Frequencies --   1029.1278              1091.7730              1105.0030
 Red. masses --      3.0594                 1.6133                 1.3907
 Frc consts  --      1.9091                 1.1330                 1.0005
 IR Inten    --      5.7944               138.5932               101.9066

                     22                     23                     24
                      A                      A                      A
 Frequencies --   1141.6399              1165.8937              1215.2801
 Red. masses --      1.5236                 2.1291                 1.9174
 Frc consts  --      1.1700                 1.7052                 1.6684
 IR Inten    --     19.1605                33.5383                 8.4144

                     25                     26                     27
                      A                      A                      A
 Frequencies --   1293.6769              1353.0485              1363.8140
 Red. masses --      1.2356                 1.9383                 1.2693
 Frc consts  --      1.2184                 2.0907                 1.3910
 IR Inten    --     39.9910                 0.3582                52.0904

                     28                     29                     30
                      A                      A                      A
 Frequencies --   1403.2973              1429.6167              1483.6479
 Red. masses --      1.5174                 1.3812                 1.6030
 Frc consts  --      1.7606                 1.6632                 2.0789
 IR Inten    --     21.4816                25.3758                49.0135

                     31                     32                     33
                      A                      A                      A
 Frequencies --   1500.0756              1518.7383              1521.4973
 Red. masses --      2.2472                 1.1758                 1.0970
 Frc consts  --      2.9793                 1.5979                 1.4963
 IR Inten    --      9.3957               311.6199                12.0714

                     34                     35                     36
                      A                      A                      A
 Frequencies --   1565.2184              1646.5253              1656.7699
 Red. masses --      5.0914                 1.0381                 1.0415
 Frc consts  --      7.3492                 1.6582                 1.6844
 IR Inten    --     33.9753                28.7723                84.0109

                     37                     38                     39
                      A                      A                      A
 Frequencies --   3078.1803              3137.3776              3145.9808
 Red. masses --      1.0686                 1.0710                 1.0847
 Frc consts  --      5.9653                 6.2111                 6.3251
 IR Inten    --     11.1033                16.0483                22.8974

                     40                     41                     42
                      A                      A                      A
 Frequencies --   3198.6932              3213.9890              3254.8754
 Red. masses --      1.1033                 1.0727                 1.0922
 Frc consts  --      6.6511                 6.5288                 6.8174
 IR Inten    --    159.5275               428.1335                 3.8538

                     43                     44                     45
                      A                      A                      A
 Frequencies --   3301.3795              3413.3067              3458.9125
 Red. masses --      1.0987                 1.0612                 1.0949
 Frc consts  --      7.0552                 7.2846                 7.7180
 IR Inten    --      3.4261               258.7760               222.1333

 - Thermochemistry -
 -------------------
 Temperature   298.150 Kelvin.  Pressure   1.00000 Atm.
 Atom     1 has atomic number  7 and mass  14.00307

 Molecular mass:   129.04865 amu.
 Principal axes and moments of inertia in atomic units:
                           1         2         3
     Eigenvalues --   485.837381538.158411956.11330
           X            0.99983   0.01837   0.00060
           Y           -0.01837   0.99983   0.00233
           Z           -0.00055  -0.00234   1.00000
 This molecule is an asymmetric top.
 Rotational symmetry number  1.
 Warning -- assumption of classical behavior for rotation
           may cause significant error
 Rotational temperatures (Kelvin)      0.17828     0.05631     0.04428
 Rotational constants (GHZ):           3.71470     1.17331     0.92262
 Zero-point vibrational energy     382435.6 (Joules/Mol)
                                   91.40430 (Kcal/Mol)
 Warning -- explicit consideration of   9 degrees of freedom as
           vibrations may cause significant error
 Vibrational temperatures:     82.33   247.02   269.14   389.37   432.86
          (Kelvin)            543.64   629.99   730.63   840.62   895.81
                             1015.31  1077.06  1100.57  1237.55  1274.72
                             1301.13  1304.13  1376.87  1480.69  1570.82
                             1589.85  1642.57  1677.46  1748.52  1861.31
                             1946.73  1962.22  2019.03  2056.90  2134.64
                             2158.27  2185.13  2189.10  2252.00  2368.98
                             2383.72  4428.81  4513.99  4526.36  4602.21
                             4624.21  4683.04  4749.95  4910.99  4976.60

 Zero-point correction=                           0.145662 (Hartree/Particle)
 Thermal correction to Energy=                    0.153294
 Thermal correction to Enthalpy=                  0.154238
 Thermal correction to Gibbs Free Energy=         0.112952
 Sum of electronic and zero-point Energies=           -703.366674
 Sum of electronic and thermal Energies=              -703.359042
 Sum of electronic and thermal Enthalpies=            -703.358098
 Sum of electronic and thermal Free Energies=         -703.399384

                     E (Thermal)             CV                S
                      KCal/Mol        Cal/Mol-Kelvin    Cal/Mol-Kelvin
 Total                   96.193             28.629             86.894
 Electronic               0.000              0.000              0.000
 Translational            0.889              2.981             40.478
 Rotational               0.889              2.981             28.771
 Vibrational             94.416             22.668             17.645
 Vibration     1          0.596              1.975              4.551
 Vibration     2          0.626              1.877              2.417
 Vibration     3          0.632              1.858              2.257
 Vibration     4          0.674              1.727              1.592
 Vibration     5          0.693              1.672              1.412
 Vibration     6          0.748              1.517              1.048
 Vibration     7          0.798              1.388              0.833
 Vibration     8          0.863              1.233              0.639
 Vibration     9          0.941              1.065              0.478

 Optimization completed.
    -- Stationary point found.
 Normal termination of Gaussian 16 at Sun Jul 11 16:32:06 2021.

 ----------------------------------------------------------------------
 #p b3lyp/6-31G(d) scrf=(iefpcm,read,solvent=water) geom=allcheck guess
 =read
 ----------------------------------------------------------------------

 Structure from the checkpoint file:  "SET_328_BBB87_conf1.geo_075_075.chk"
 ----------------------------------------
 SET_328_BBB87_conf1.geo_075_075 geometry
 ----------------------------------------
 Charge =  1 Multiplicity = 1

 SCF Done:  E(RB3LYP) =  -703.512336302     A.U. after    1 cycles
 Normal termination of Gaussian 16 at Sun Jul 11 16:32:09 2021.

 -----------------------------
 #p B3LYP/6-31G* geom=allcheck
 -----------------------------

 Structure from the checkpoint file:  "SET_328_BBB87_conf1.geo_075_075.chk"
 ----------------------------------------
 SET_328_BBB87_conf1.geo_075_075 geometry
 ----------------------------------------
 Charge =  1 Multiplicity = 1

 SCF Done:  E(RB3LYP) =  -703.410863933     A.U. after   15 cycles
 Normal termination of Gaussian 16 at Sun Jul 11 16:32:19 2021.
 Gaussian 16:  ES64L-G16RevB.01 20-Dec-2017

 --------------------------------------------------------
 #p mp2/aug-cc-pVDZ scf=tight maxdisk=180GB geom=allcheck
 --------------------------------------------------------

 Structure from the checkpoint file:  "SET_328_BBB87_conf1.geo_075_075.chk"
 ----------------------------------------
 SET_328_BBB87_conf1.geo_075_075 geometry
 ----------------------------------------
 Charge =  1 Multiplicity = 1

                         Standard orientation:
 ---------------------------------------------------------------------
 Center     Atomic      Atomic             Coordinates (Angstroms)
 Number     Number       Type             X           Y           Z
 ---------------------------------------------------------------------
      1          7           0       -2.688484    0.821280   -0.133569
      2          1           0       -1.825835    1.402009   -0.130497
      3          1           0       -3.428549    1.294075    0.407363
      4          6           0       -2.351352   -0.520035    0.448303
      5          1           0       -3.228357   -1.155908    0.342636
      6          1           0       -2.152633   -0.359772    1.507532
      7          6           0       -1.142420   -1.133907   -0.258405
      8          1           0       -1.367372   -1.275302   -1.322273
      9          1           0       -0.979802   -2.129574    0.159149
     10          6           0        0.101249   -0.297859   -0.112197
     11          7           0        0.091999    1.011153   -0.084285
     12          6           0        1.363731    1.529100    0.035529
     13          1           0        1.497302    2.602755    0.073390
     14          6           0        2.366891    0.609185    0.096909
     15          1           0        3.430077    0.772177    0.189092
     16         16           0        1.701150   -0.989770    0.009166
     17          1           0       -3.016427    0.739930   -1.108899
 ---------------------------------------------------------------------

 SCF Done:  E(RHF) =  -700.831702886     A.U. after   15 cycles
 E2 =    -0.1193509261D+01 EUMP2 =    -0.70202521214716D+03

 The electronic state is 1-A.
 Alpha  occ. eigenvalues --  -92.13122 -15.87182 -15.72916 -11.47940 -11.46947
 Alpha  occ. eigenvalues --  -11.42786 -11.40641 -11.40175  -9.13304  -6.81443
 Alpha  occ. eigenvalues --   -6.81353  -6.81179  -1.48877  -1.42804  -1.24079
 Alpha  occ. eigenvalues --   -1.20076  -1.13747  -1.05254  -0.95574  -0.94339
 Alpha  occ. eigenvalues --   -0.92899  -0.87853  -0.83700  -0.82022  -0.77781
 Alpha  occ. eigenvalues --   -0.74800  -0.73100  -0.70131  -0.68518  -0.67812
 Alpha  occ. eigenvalues --   -0.63412  -0.57990  -0.52663  -0.46866
 Alpha virt. eigenvalues --   -0.09974  -0.07224  -0.06842  -0.05750  -0.04027
 Alpha virt. eigenvalues --   -0.03789  -0.03589  -0.03377  -0.02621  -0.01608
 Alpha virt. eigenvalues --   -0.01321  -0.00053   0.00031   0.01150   0.01673

 Mulliken charges:
               1
     1  N   -0.390871
     2  H    0.251563
     3  H    0.180320
     4  C    0.905613
     5  H   -0.100816
     6  H   -0.145111
     7  C    0.166362
     8  H    0.029469
     9  H    0.043757
    10  C   -0.121504
    11  N   -0.669309
    12  C    0.674014
    13  H   -0.257866
    14  C    0.135224
    15  H   -0.330406
    16  S    0.384331
    17  H    0.245232
 Sum of Mulliken charges =   1.00000

 Dipole moment (field-independent basis, Debye):
    X=             -8.5896    Y=              1.4316    Z=             -0.2121  Tot=              8.7106
 Quadrupole moment (field-independent basis, Debye-Ang):
   XX=            -11.5501   YY=            -44.4352   ZZ=            -53.2152
   XY=             -3.0310   XZ=              1.6581   YZ=              0.0129

 Normal termination of Gaussian 16 at Sun Jul 11 16:33:39 2021.
