 Gaussian 16, Revision B.01,

 -----------------------------------------------------------
 #p b3lyp/6-31G(d) opt freq scrf=(iefpcm,read,solvent=water)
 -----------------------------------------------------------

 -----------------------------------------
 SET_328_BBB315_conf1.geo_060_075 geometry
 -----------------------------------------
 Symbolic Z-matrix:
 Charge =  1 Multiplicity = 1

 SCF Done:  E(RB3LYP) =  -514.281065272     A.U. after   12 cycles
 SCF Done:  E(RB3LYP) =  -514.308593042     A.U. after   11 cycles
 SCF Done:  E(RB3LYP) =  -514.316281531     A.U. after   10 cycles
 SCF Done:  E(RB3LYP) =  -514.317493211     A.U. after   10 cycles
 SCF Done:  E(RB3LYP) =  -514.317799709     A.U. after   10 cycles
 SCF Done:  E(RB3LYP) =  -514.317877094     A.U. after    9 cycles
 SCF Done:  E(RB3LYP) =  -514.317899857     A.U. after    9 cycles
 SCF Done:  E(RB3LYP) =  -514.317917369     A.U. after    9 cycles
 SCF Done:  E(RB3LYP) =  -514.317913475     A.U. after   10 cycles
 SCF Done:  E(RB3LYP) =  -514.317964702     A.U. after   10 cycles
 SCF Done:  E(RB3LYP) =  -514.317993518     A.U. after    8 cycles
 SCF Done:  E(RB3LYP) =  -514.317986236     A.U. after    8 cycles
 SCF Done:  E(RB3LYP) =  -514.317996181     A.U. after    8 cycles
 SCF Done:  E(RB3LYP) =  -514.317993691     A.U. after    7 cycles
 SCF Done:  E(RB3LYP) =  -514.317995223     A.U. after    7 cycles
 SCF Done:  E(RB3LYP) =  -514.317996028     A.U. after    6 cycles
 Optimization completed.
    -- Stationary point found.
 Normal termination of Gaussian 16 at Sun Jul 11 16:35:45 2021.

 --------------------------------------------------------------------
 #P Geom=AllCheck Guess=TCheck SCRF=Check GenChk RB3LYP/6-31G(d) Freq
 --------------------------------------------------------------------

 Structure from the checkpoint file:  "SET_328_BBB315_conf1.geo_060_075.chk"
 -----------------------------------------
 SET_328_BBB315_conf1.geo_060_075 geometry
 -----------------------------------------
 Charge =  1 Multiplicity = 1

 SCF Done:  E(RB3LYP) =  -514.317996028     A.U. after    1 cycles

  Exact polarizability: 220.521  -2.325 154.904  29.828  -1.772  79.898
 Approx polarizability: 243.691   0.076 189.083  36.453  -1.520  90.847

                      1                      2                      3
                      A                      A                      A
 Frequencies --     31.1071                71.4277               142.9247
 Red. masses --      3.6851                 4.0729                 3.1714
 Frc consts  --      0.0021                 0.0122                 0.0382
 IR Inten    --     15.2669                26.4687                21.5585

                      4                      5                      6
                      A                      A                      A
 Frequencies --    182.5523               242.7752               255.3525
 Red. masses --      2.4707                 3.9395                 1.3885
 Frc consts  --      0.0485                 0.1368                 0.0533
 IR Inten    --      6.9738                 3.7121                 2.3260

                      7                      8                      9
                      A                      A                      A
 Frequencies --    294.1518               325.0584               421.9202
 Red. masses --      1.9108                 3.3583                 2.5503
 Frc consts  --      0.0974                 0.2091                 0.2675
 IR Inten    --      5.0565                23.7743                 1.0079

                     10                     11                     12
                      A                      A                      A
 Frequencies --    453.2833               483.3738               545.0365
 Red. masses --      2.9566                 4.2354                 3.9612
 Frc consts  --      0.3579                 0.5831                 0.6933
 IR Inten    --      7.3342                 6.3626                 0.9679

                     13                     14                     15
                      A                      A                      A
 Frequencies --    579.7570               628.1932               663.9810
 Red. masses --      3.4610                 6.3484                 4.6192
 Frc consts  --      0.6854                 1.4760                 1.1999
 IR Inten    --      0.0177                 0.7201                 2.3637

                     16                     17                     18
                      A                      A                      A
 Frequencies --    697.6321               726.8700               761.6660
 Red. masses --      1.7886                 1.9105                 1.8782
 Frc consts  --      0.5129                 0.5947                 0.6420
 IR Inten    --     19.9670                12.4804                52.1859

                     19                     20                     21
                      A                      A                      A
 Frequencies --    770.4184               822.8876               851.3874
 Red. masses --      2.3920                 3.1505                 2.3396
 Frc consts  --      0.8365                 1.2569                 0.9992
 IR Inten    --     48.5782                 3.1030                 4.2637

                     22                     23                     24
                      A                      A                      A
 Frequencies --    859.7045               891.6857               921.9777
 Red. masses --      1.4262                 1.8621                 3.8850
 Frc consts  --      0.6210                 0.8723                 1.9457
 IR Inten    --      0.8602                36.3445                 8.3774

                     25                     26                     27
                      A                      A                      A
 Frequencies --    945.5060               949.1663               990.3088
 Red. masses --      1.6610                 1.3035                 1.2537
 Frc consts  --      0.8749                 0.6919                 0.7244
 IR Inten    --     26.7799                 1.1365                 0.0520

                     28                     29                     30
                      A                      A                      A
 Frequencies --   1003.4688              1035.0270              1047.2900
 Red. masses --      3.8528                 2.5532                 2.6435
 Frc consts  --      2.2858                 1.6116                 1.7083
 IR Inten    --     13.3230                 6.5635                 8.0234

                     31                     32                     33
                      A                      A                      A
 Frequencies --   1110.2979              1115.2612              1155.0385
 Red. masses --      1.4870                 1.3878                 1.5670
 Frc consts  --      1.0801                 1.0170                 1.2317
 IR Inten    --      8.1092                52.5396                 4.0510

                     34                     35                     36
                      A                      A                      A
 Frequencies --   1169.4127              1203.5895              1263.1289
 Red. masses --      1.1836                 1.3460                 2.0408
 Frc consts  --      0.9536                 1.1488                 1.9184
 IR Inten    --     25.3295                 3.9248                61.2856

                     37                     38                     39
                      A                      A                      A
 Frequencies --   1284.8568              1303.0719              1345.2704
 Red. masses --      1.8813                 2.4185                 1.4551
 Frc consts  --      1.8299                 2.4195                 1.5515
 IR Inten    --      3.6940                65.5915                 3.7042

                     40                     41                     42
                      A                      A                      A
 Frequencies --   1369.8093              1378.9983              1394.0123
 Red. masses --      1.5585                 3.0738                 2.2134
 Frc consts  --      1.7230                 3.4439                 2.5342
 IR Inten    --    144.9903                32.8376                19.9751

                     43                     44                     45
                      A                      A                      A
 Frequencies --   1411.9225              1427.9871              1482.2353
 Red. masses --      2.1959                 1.4545                 1.1105
 Frc consts  --      2.5791                 1.7475                 1.4375
 IR Inten    --      4.3564                19.0685                13.2130

                     46                     47                     48
                      A                      A                      A
 Frequencies --   1500.6975              1515.6143              1530.6105
 Red. masses --      2.6591                 1.0822                 1.1745
 Frc consts  --      3.5284                 1.4647                 1.6212
 IR Inten    --      0.3137                17.2281               202.5882

                     49                     50                     51
                      A                      A                      A
 Frequencies --   1550.2333              1580.1823              1593.0768
 Red. masses --      4.9559                 4.9108                 5.5307
 Frc consts  --      7.0172                 7.2246                 8.2700
 IR Inten    --    110.6608                 2.4381                15.6350

                     52                     53                     54
                      A                      A                      A
 Frequencies --   1632.3737              1653.0773              1694.4305
 Red. masses --      1.0348                 1.0423                 6.0047
 Frc consts  --      1.6246                 1.6781                10.1576
 IR Inten    --     59.3198                83.7013                30.1354

                     55                     56                     57
                      A                      A                      A
 Frequencies --   3081.3787              3125.4002              3144.5910
 Red. masses --      1.0623                 1.0992                 1.0627
 Frc consts  --      5.9426                 6.3261                 6.1914
 IR Inten    --     30.4567                14.2638                23.3013

                     58                     59                     60
                      A                      A                      A
 Frequencies --   3204.0603              3225.1871              3238.7123
 Red. masses --      1.1104                 1.0877                 1.0905
 Frc consts  --      6.7163                 6.6662                 6.7394
 IR Inten    --     15.1545                 5.1568                 8.2767

                     61                     62                     63
                      A                      A                      A
 Frequencies --   3245.8454              3264.5558              3314.5342
 Red. masses --      1.0961                 1.0966                 1.0985
 Frc consts  --      6.8037                 6.8859                 7.1106
 IR Inten    --     14.6950                 6.5079                 0.1730

                     64                     65                     66
                      A                      A                      A
 Frequencies --   3382.6586              3447.2781              3469.8726
 Red. masses --      1.0362                 1.0906                 1.0940
 Frc consts  --      6.9856                 7.6357                 7.7607
 IR Inten    --    123.8521               223.3552               237.2145

 - Thermochemistry -
 -------------------
 Temperature   298.150 Kelvin.  Pressure   1.00000 Atm.
 Atom     1 has atomic number  7 and mass  14.00307

 Molecular mass:   162.10312 amu.
 Principal axes and moments of inertia in atomic units:
                           1         2         3
     Eigenvalues --   733.549983445.070743692.95179
           X            0.99999  -0.00134  -0.00332
           Y            0.00131   0.99997  -0.00785
           Z            0.00333   0.00784   0.99996
 This molecule is an asymmetric top.
 Rotational symmetry number  1.
 Warning -- assumption of classical behavior for rotation
           may cause significant error
 Rotational temperatures (Kelvin)      0.11808     0.02514     0.02345
 Rotational constants (GHZ):           2.46028     0.52386     0.48870
 Zero-point vibrational energy     546724.2 (Joules/Mol)
                                  130.67023 (Kcal/Mol)
 Warning -- explicit consideration of  13 degrees of freedom as
           vibrations may cause significant error
 Vibrational temperatures:     44.76   102.77   205.64   262.65   349.30
          (Kelvin)            367.40   423.22   467.69   607.05   652.17
                              695.47   784.19   834.14   903.83   955.32
                             1003.74  1045.80  1095.87  1108.46  1183.95
                             1224.96  1236.92  1282.94  1326.52  1360.37
                             1365.64  1424.83  1443.77  1489.17  1506.82
                             1597.47  1604.61  1661.84  1682.52  1731.70
                             1817.36  1848.62  1874.83  1935.54  1970.85
                             1984.07  2005.67  2031.44  2054.55  2132.61
                             2159.17  2180.63  2202.21  2230.44  2273.53
                             2292.08  2348.62  2378.41  2437.91  4433.42
                             4496.75  4524.37  4609.93  4640.32  4659.78
                             4670.05  4696.97  4768.88  4866.89  4959.86
                             4992.37

 Zero-point correction=                           0.208236 (Hartree/Particle)
 Thermal correction to Energy=                    0.218346
 Thermal correction to Enthalpy=                  0.219290
 Thermal correction to Gibbs Free Energy=         0.171745
 Sum of electronic and zero-point Energies=           -514.109760
 Sum of electronic and thermal Energies=              -514.099650
 Sum of electronic and thermal Enthalpies=            -514.098706
 Sum of electronic and thermal Free Energies=         -514.146251

                     E (Thermal)             CV                S
                      KCal/Mol        Cal/Mol-Kelvin    Cal/Mol-Kelvin
 Total                  137.014             39.676            100.066
 Electronic               0.000              0.000              0.000
 Translational            0.889              2.981             41.158
 Rotational               0.889              2.981             30.613
 Vibrational            135.236             33.714             28.296
 Vibration     1          0.594              1.983              5.758
 Vibration     2          0.598              1.968              4.114
 Vibration     3          0.616              1.910              2.764
 Vibration     4          0.630              1.864              2.302
 Vibration     5          0.659              1.775              1.782
 Vibration     6          0.666              1.754              1.693
 Vibration     7          0.689              1.685              1.450
 Vibration     8          0.709              1.625              1.285
 Vibration     9          0.784              1.423              0.885
 Vibration    10          0.812              1.354              0.786
 Vibration    11          0.840              1.287              0.701
 Vibration    12          0.900              1.151              0.555
 Vibration    13          0.936              1.075              0.486

 Optimization completed.
    -- Stationary point found.
 Normal termination of Gaussian 16 at Sun Jul 11 16:40:59 2021.

 ----------------------------------------------------------------------
 #p b3lyp/6-31G(d) scrf=(iefpcm,read,solvent=water) geom=allcheck guess
 =read
 ----------------------------------------------------------------------

 Structure from the checkpoint file:  "SET_328_BBB315_conf1.geo_060_075.chk"
 -----------------------------------------
 SET_328_BBB315_conf1.geo_060_075 geometry
 -----------------------------------------
 Charge =  1 Multiplicity = 1

 SCF Done:  E(RB3LYP) =  -514.317996028     A.U. after    1 cycles
 Normal termination of Gaussian 16 at Sun Jul 11 16:41:05 2021.

 -----------------------------
 #p B3LYP/6-31G* geom=allcheck
 -----------------------------

 Structure from the checkpoint file:  "SET_328_BBB315_conf1.geo_060_075.chk"
 -----------------------------------------
 SET_328_BBB315_conf1.geo_060_075 geometry
 -----------------------------------------
 Charge =  1 Multiplicity = 1

 SCF Done:  E(RB3LYP) =  -514.205738899     A.U. after   14 cycles
 Normal termination of Gaussian 16 at Sun Jul 11 16:41:31 2021.
 Gaussian 16:  ES64L-G16RevB.01 20-Dec-2017

 --------------------------------------------------------
 #p mp2/aug-cc-pVDZ scf=tight maxdisk=180GB geom=allcheck
 --------------------------------------------------------

 Structure from the checkpoint file:  "SET_328_BBB315_conf1.geo_060_075.chk"
 -----------------------------------------
 SET_328_BBB315_conf1.geo_060_075 geometry
 -----------------------------------------
 Charge =  1 Multiplicity = 1

                         Standard orientation:
 ---------------------------------------------------------------------
 Center     Atomic      Atomic             Coordinates (Angstroms)
 Number     Number       Type             X           Y           Z
 ---------------------------------------------------------------------
      1          7           0       -3.314248    0.271017    1.346440
      2          1           0       -3.702029    1.215020    1.194193
      3          1           0       -2.352802    0.384073    1.697138
      4          6           0       -3.344862   -0.549299    0.087853
      5          1           0       -4.387201   -0.612339   -0.218710
      6          1           0       -2.983595   -1.542062    0.354147
      7          6           0       -2.478217    0.082415   -0.999113
      8          1           0       -2.827383    1.096409   -1.212213
      9          1           0       -2.639102   -0.506286   -1.907988
     10          6           0       -1.017852    0.098443   -0.658909
     11          6           0       -0.211919    1.203571   -0.480212
     12          1           0       -0.405685    2.261285   -0.550297
     13          7           0        1.040306    0.707734   -0.176570
     14          6           0        2.226054    1.348375    0.092084
     15          1           0        2.206808    2.429707    0.067630
     16          6           0        3.336544    0.602440    0.368509
     17          1           0        4.270353    1.109339    0.580166
     18          6           0        3.265587   -0.818779    0.377409
     19          1           0        4.156183   -1.395210    0.598837
     20          6           0        2.080247   -1.458960    0.107826
     21          1           0        1.995170   -2.538737    0.106857
     22          6           0        0.927034   -0.692710   -0.179168
     23          7           0       -0.320187   -1.067432   -0.470668
     24          1           0       -3.867520   -0.173398    2.098149
 ---------------------------------------------------------------------

 SCF Done:  E(RHF) =  -510.995794743     A.U. after   17 cycles
 E2 =    -0.1752423110D+01 EUMP2 =    -0.51274821785253D+03

 The electronic state is 1-A.
 Alpha  occ. eigenvalues --  -15.88435 -15.76901 -15.66755 -11.46483 -11.42939
 Alpha  occ. eigenvalues --  -11.40995 -11.39857 -11.39711 -11.38876 -11.36707
 Alpha  occ. eigenvalues --  -11.35622 -11.35606  -1.49357  -1.47887  -1.33074
 Alpha  occ. eigenvalues --   -1.23349  -1.21675  -1.13727  -1.12062  -1.05038
 Alpha  occ. eigenvalues --   -0.97681  -0.95467  -0.95106  -0.94208  -0.91053
 Alpha  occ. eigenvalues --   -0.83892  -0.82617  -0.80583  -0.77649  -0.75874
 Alpha  occ. eigenvalues --   -0.75054  -0.73702  -0.72513  -0.70952  -0.68671
 Alpha  occ. eigenvalues --   -0.66840  -0.64742  -0.63307  -0.58161  -0.55589
 Alpha  occ. eigenvalues --   -0.54831  -0.44324  -0.40465
 Alpha virt. eigenvalues --   -0.10367  -0.07029  -0.06865  -0.05230  -0.03996
 Alpha virt. eigenvalues --   -0.03484  -0.03177  -0.03054  -0.02479  -0.02031
 Alpha virt. eigenvalues --   -0.01512  -0.01111  -0.00501   0.00460   0.00722

 Mulliken charges:
               1
     1  N   -0.468319
     2  H    0.230807
     3  H    0.274406
     4  C    0.891731
     5  H   -0.131243
     6  H   -0.097412
     7  C    0.444424
     8  H   -0.129112
     9  H    0.083728
    10  C    0.127659
    11  C    1.074217
    12  H   -0.464798
    13  N   -0.738114
    14  C    0.665868
    15  H   -0.490023
    16  C    0.794745
    17  H   -0.427353
    18  C   -0.055060
    19  H   -0.407238
    20  C    1.474156
    21  H   -0.480546
    22  C   -0.305244
    23  N   -1.040579
    24  H    0.173298
 Sum of Mulliken charges =   1.00000

 Dipole moment (field-independent basis, Debye):
    X=            -10.1189    Y=              3.2374    Z=              5.0898  Tot=             11.7804
 Quadrupole moment (field-independent basis, Debye-Ang):
   XX=             -2.1006   YY=            -60.8336   ZZ=            -62.6643
   XY=             -3.5796   XZ=            -13.2512   YZ=             -0.0854

 Normal termination of Gaussian 16 at Sun Jul 11 16:49:41 2021.
