 Gaussian 16, Revision B.01,

 -----------------------------------------------------------
 #p b3lyp/6-31G(d) opt freq scrf=(iefpcm,read,solvent=water)
 -----------------------------------------------------------

 -----------------------------------------
 SET_328_BBB315_conf1.geo_300_105 geometry
 -----------------------------------------
 Symbolic Z-matrix:
 Charge =  1 Multiplicity = 1

 SCF Done:  E(RB3LYP) =  -514.285422745     A.U. after   13 cycles
 SCF Done:  E(RB3LYP) =  -514.310603978     A.U. after   11 cycles
 SCF Done:  E(RB3LYP) =  -514.316886452     A.U. after   11 cycles
 SCF Done:  E(RB3LYP) =  -514.317517536     A.U. after   10 cycles
 SCF Done:  E(RB3LYP) =  -514.318169610     A.U. after   11 cycles
 SCF Done:  E(RB3LYP) =  -514.315222809     A.U. after   14 cycles
 SCF Done:  E(RB3LYP) =  -514.319515674     A.U. after   11 cycles
 SCF Done:  E(RB3LYP) =  -514.318210465     A.U. after   13 cycles
 SCF Done:  E(RB3LYP) =  -514.320228377     A.U. after   11 cycles
 SCF Done:  E(RB3LYP) =  -514.320872034     A.U. after   10 cycles
 SCF Done:  E(RB3LYP) =  -514.321230061     A.U. after    7 cycles
 SCF Done:  E(RB3LYP) =  -514.321229501     A.U. after    7 cycles
 SCF Done:  E(RB3LYP) =  -514.321220650     A.U. after    9 cycles
 SCF Done:  E(RB3LYP) =  -514.321230107     A.U. after    8 cycles
 SCF Done:  E(RB3LYP) =  -514.321230674     A.U. after    7 cycles
 SCF Done:  E(RB3LYP) =  -514.321230361     A.U. after    8 cycles
 Optimization completed.
    -- Stationary point found.
 Normal termination of Gaussian 16 at Sun Jul 11 16:36:11 2021.

 --------------------------------------------------------------------
 #P Geom=AllCheck Guess=TCheck SCRF=Check GenChk RB3LYP/6-31G(d) Freq
 --------------------------------------------------------------------

 Structure from the checkpoint file:  "SET_328_BBB315_conf1.geo_300_105.chk"
 -----------------------------------------
 SET_328_BBB315_conf1.geo_300_105 geometry
 -----------------------------------------
 Charge =  1 Multiplicity = 1

 SCF Done:  E(RB3LYP) =  -514.321230361     A.U. after    1 cycles

  Exact polarizability: 225.708 -12.817 162.393  10.663   4.045  70.885
 Approx polarizability: 247.814 -12.916 193.068  14.095   5.987  82.285

                      1                      2                      3
                      A                      A                      A
 Frequencies --     63.3694               124.1560               167.3962
 Red. masses --      4.0507                 3.4459                 3.5648
 Frc consts  --      0.0096                 0.0313                 0.0589
 IR Inten    --     25.4930                 4.7255                35.3198

                      4                      5                      6
                      A                      A                      A
 Frequencies --    230.5650               243.2636               271.2012
 Red. masses --      2.5787                 4.1386                 3.7609
 Frc consts  --      0.0808                 0.1443                 0.1630
 IR Inten    --      2.1613                 5.5752                78.5441

                      7                      8                      9
                      A                      A                      A
 Frequencies --    350.5216               399.9595               433.0015
 Red. masses --      2.7405                 1.2305                 2.1696
 Frc consts  --      0.1984                 0.1160                 0.2397
 IR Inten    --     22.9969                 1.9961                 8.2288

                     10                     11                     12
                      A                      A                      A
 Frequencies --    449.4353               487.2495               547.9629
 Red. masses --      3.2606                 3.7165                 3.3408
 Frc consts  --      0.3880                 0.5199                 0.5910
 IR Inten    --      7.6339                10.1460                 0.7239

                     13                     14                     15
                      A                      A                      A
 Frequencies --    577.7227               632.0896               661.9089
 Red. masses --      3.4498                 6.0930                 4.4643
 Frc consts  --      0.6784                 1.4343                 1.1524
 IR Inten    --      0.0143                 3.1996                 3.0879

                     16                     17                     18
                      A                      A                      A
 Frequencies --    699.8764               734.9242               761.7824
 Red. masses --      1.7171                 2.1782                 1.6352
 Frc consts  --      0.4955                 0.6932                 0.5591
 IR Inten    --     15.5758                 9.5411                72.7349

                     19                     20                     21
                      A                      A                      A
 Frequencies --    768.4050               829.1498               858.1128
 Red. masses --      3.0967                 2.9662                 2.6036
 Frc consts  --      1.0773                 1.2015                 1.1296
 IR Inten    --     33.9214                 2.3527                 7.0820

                     22                     23                     24
                      A                      A                      A
 Frequencies --    858.5469               911.4582               936.7105
 Red. masses --      1.4475                 1.9073                 5.4735
 Frc consts  --      0.6286                 0.9336                 2.8296
 IR Inten    --      2.0215                49.4030                22.4070

                     25                     26                     27
                      A                      A                      A
 Frequencies --    945.7248               961.0833               991.9074
 Red. masses --      1.3080                 1.3682                 1.2570
 Frc consts  --      0.6892                 0.7446                 0.7287
 IR Inten    --      0.8303                15.9289                 0.0839

                     28                     29                     30
                      A                      A                      A
 Frequencies --   1003.5986              1037.8551              1049.3458
 Red. masses --      3.9486                 2.4511                 2.8632
 Frc consts  --      2.3432                 1.5556                 1.8575
 IR Inten    --      2.8547                12.2662                18.5851

                     31                     32                     33
                      A                      A                      A
 Frequencies --   1124.7085              1149.6649              1153.4437
 Red. masses --      1.2648                 1.4788                 1.4872
 Frc consts  --      0.9427                 1.1516                 1.1657
 IR Inten    --     69.4448                60.6167                 5.0770

                     34                     35                     36
                      A                      A                      A
 Frequencies --   1168.4397              1201.8133              1268.0484
 Red. masses --      1.1709                 1.3178                 2.6089
 Frc consts  --      0.9418                 1.1214                 2.4716
 IR Inten    --     26.7000                14.3222                25.8645

                     37                     38                     39
                      A                      A                      A
 Frequencies --   1286.1780              1308.4689              1347.8217
 Red. masses --      1.6003                 2.2596                 1.6205
 Frc consts  --      1.5598                 2.2793                 1.7344
 IR Inten    --     27.5581                68.7717                 7.8818

                     40                     41                     42
                      A                      A                      A
 Frequencies --   1367.1231              1383.3486              1394.2066
 Red. masses --      1.5014                 3.1967                 2.3055
 Frc consts  --      1.6533                 3.6043                 2.6404
 IR Inten    --    135.3705                45.1014                58.0379

                     43                     44                     45
                      A                      A                      A
 Frequencies --   1410.3421              1425.8912              1488.1461
 Red. masses --      2.3005                 1.3918                 1.1191
 Frc consts  --      2.6960                 1.6672                 1.4602
 IR Inten    --      1.8601                16.8503                16.5707

                     46                     47                     48
                      A                      A                      A
 Frequencies --   1497.9191              1519.0517              1530.9167
 Red. masses --      2.5756                 1.0933                 1.6088
 Frc consts  --      3.4048                 1.4864                 2.2215
 IR Inten    --      2.4065                11.2858               458.1973

                     49                     50                     51
                      A                      A                      A
 Frequencies --   1558.9970              1581.3533              1598.1814
 Red. masses --      2.2030                 4.9594                 5.4208
 Frc consts  --      3.1547                 7.3070                 8.1576
 IR Inten    --     40.5730                 3.8656                23.0055

                     52                     53                     54
                      A                      A                      A
 Frequencies --   1638.9236              1685.8317              1696.9775
 Red. masses --      1.0656                 1.0950                 4.5442
 Frc consts  --      1.6865                 1.8336                 7.7101
 IR Inten    --     12.4352                75.3282                40.3966

                     55                     56                     57
                      A                      A                      A
 Frequencies --   3063.3900              3073.5113              3129.6521
 Red. masses --      1.0692                 1.0730                 1.0811
 Frc consts  --      5.9119                 5.9721                 6.2390
 IR Inten    --     25.9895              1024.0111                 6.4732

                     58                     59                     60
                      A                      A                      A
 Frequencies --   3139.6060              3193.6574              3228.0683
 Red. masses --      1.0732                 1.1101                 1.0885
 Frc consts  --      6.2327                 6.6707                 6.6829
 IR Inten    --     21.3792                 9.0647                 5.6535

                     61                     62                     63
                      A                      A                      A
 Frequencies --   3246.5324              3251.7648              3275.7209
 Red. masses --      1.0930                 1.0929                 1.0971
 Frc consts  --      6.7877                 6.8088                 6.9357
 IR Inten    --      9.6971                 7.6572                 5.2064

                     64                     65                     66
                      A                      A                      A
 Frequencies --   3316.8619              3388.7161              3468.8027
 Red. masses --      1.0988                 1.0638                 1.0880
 Frc consts  --      7.1222                 7.1974                 7.7134
 IR Inten    --      0.3124               234.6723               202.6612

 - Thermochemistry -
 -------------------
 Temperature   298.150 Kelvin.  Pressure   1.00000 Atm.
 Atom     1 has atomic number  7 and mass  14.00307

 Molecular mass:   162.10312 amu.
 Principal axes and moments of inertia in atomic units:
                           1         2         3
     Eigenvalues --   724.333333189.670263820.86671
           X            0.99999   0.00406  -0.00046
           Y           -0.00406   0.99999   0.00065
           Z            0.00046  -0.00065   1.00000
 This molecule is an asymmetric top.
 Rotational symmetry number  1.
 Warning -- assumption of classical behavior for rotation
           may cause significant error
 Rotational temperatures (Kelvin)      0.11958     0.02715     0.02267
 Rotational constants (GHZ):           2.49159     0.56581     0.47234
 Zero-point vibrational energy     547592.8 (Joules/Mol)
                                  130.87782 (Kcal/Mol)
 Warning -- explicit consideration of  13 degrees of freedom as
           vibrations may cause significant error
 Vibrational temperatures:     91.17   178.63   240.85   331.73   350.00
          (Kelvin)            390.20   504.32   575.45   622.99   646.64
                              701.04   788.40   831.21   909.44   952.34
                             1006.97  1057.39  1096.04  1105.56  1192.96
                             1234.63  1235.26  1311.39  1347.72  1360.69
                             1382.78  1427.13  1443.95  1493.24  1509.77
                             1618.20  1654.11  1659.55  1681.12  1729.14
                             1824.44  1850.52  1882.59  1939.21  1966.99
                             1990.33  2005.95  2029.17  2051.54  2141.11
                             2155.17  2185.58  2202.65  2243.05  2275.21
                             2299.43  2358.05  2425.54  2441.57  4407.53
                             4422.10  4502.87  4517.19  4594.96  4644.47
                             4671.04  4678.56  4713.03  4772.22  4875.61
                             4990.83

 Zero-point correction=                           0.208567 (Hartree/Particle)
 Thermal correction to Energy=                    0.218189
 Thermal correction to Enthalpy=                  0.219133
 Thermal correction to Gibbs Free Energy=         0.173529
 Sum of electronic and zero-point Energies=           -514.112663
 Sum of electronic and thermal Energies=              -514.103042
 Sum of electronic and thermal Enthalpies=            -514.102098
 Sum of electronic and thermal Free Energies=         -514.147702

                     E (Thermal)             CV                S
                      KCal/Mol        Cal/Mol-Kelvin    Cal/Mol-Kelvin
 Total                  136.915             39.049             95.982
 Electronic               0.000              0.000              0.000
 Translational            0.889              2.981             41.158
 Rotational               0.889              2.981             30.558
 Vibrational            135.138             33.088             24.267
 Vibration     1          0.597              1.972              4.349
 Vibration     2          0.610              1.929              3.035
 Vibration     3          0.624              1.883              2.465
 Vibration     4          0.652              1.794              1.875
 Vibration     5          0.659              1.774              1.779
 Vibration     6          0.675              1.726              1.589
 Vibration     7          0.727              1.574              1.164
 Vibration     8          0.766              1.470              0.963
 Vibration     9          0.794              1.398              0.849
 Vibration    10          0.808              1.362              0.797
 Vibration    11          0.843              1.278              0.691
 Vibration    12          0.903              1.144              0.548
 Vibration    13          0.934              1.079              0.490

 Optimization completed.
    -- Stationary point found.
 Normal termination of Gaussian 16 at Sun Jul 11 16:40:26 2021.

 ----------------------------------------------------------------------
 #p b3lyp/6-31G(d) scrf=(iefpcm,read,solvent=water) geom=allcheck guess
 =read
 ----------------------------------------------------------------------

 Structure from the checkpoint file:  "SET_328_BBB315_conf1.geo_300_105.chk"
 -----------------------------------------
 SET_328_BBB315_conf1.geo_300_105 geometry
 -----------------------------------------
 Charge =  1 Multiplicity = 1

 SCF Done:  E(RB3LYP) =  -514.321230361     A.U. after    1 cycles
 Normal termination of Gaussian 16 at Sun Jul 11 16:40:31 2021.

 -----------------------------
 #p B3LYP/6-31G* geom=allcheck
 -----------------------------

 Structure from the checkpoint file:  "SET_328_BBB315_conf1.geo_300_105.chk"
 -----------------------------------------
 SET_328_BBB315_conf1.geo_300_105 geometry
 -----------------------------------------
 Charge =  1 Multiplicity = 1

 SCF Done:  E(RB3LYP) =  -514.228540239     A.U. after   14 cycles
 Normal termination of Gaussian 16 at Sun Jul 11 16:40:53 2021.
 Gaussian 16:  ES64L-G16RevB.01 20-Dec-2017

 --------------------------------------------------------
 #p mp2/aug-cc-pVDZ scf=tight maxdisk=180GB geom=allcheck
 --------------------------------------------------------

 Structure from the checkpoint file:  "SET_328_BBB315_conf1.geo_300_105.chk"
 -----------------------------------------
 SET_328_BBB315_conf1.geo_300_105 geometry
 -----------------------------------------
 Charge =  1 Multiplicity = 1

                         Standard orientation:
 ---------------------------------------------------------------------
 Center     Atomic      Atomic             Coordinates (Angstroms)
 Number     Number       Type             X           Y           Z
 ---------------------------------------------------------------------
      1          7           0       -3.210996   -1.324546    0.045895
      2          1           0       -3.646807   -1.996444    0.700460
      3          1           0       -2.189803   -1.538598   -0.051499
      4          6           0       -3.347758    0.092883    0.527402
      5          1           0       -3.037881    0.098518    1.572824
      6          1           0       -4.401183    0.360914    0.465214
      7          6           0       -2.477651    1.025212   -0.318189
      8          1           0       -2.666698    2.051561    0.005429
      9          1           0       -2.800430    0.963259   -1.365198
     10          6           0       -1.012991    0.713602   -0.205229
     11          6           0        0.038859    1.586921   -0.044884
     12          1           0        0.082604    2.660293    0.039591
     13          7           0        1.175148    0.801509    0.002074
     14          6           0        2.496905    1.142269    0.149042
     15          1           0        2.714891    2.196490    0.241184
     16          6           0        3.441004    0.154304    0.171888
     17          1           0        4.481887    0.426817    0.288213
     18          6           0        3.057293   -1.209658    0.044735
     19          1           0        3.817313   -1.981849    0.064417
     20          6           0        1.733757   -1.550107   -0.102291
     21          1           0        1.408906   -2.578294   -0.201413
     22          6           0        0.758874   -0.529103   -0.126194
     23          7           0       -0.569838   -0.586862   -0.256643
     24          1           0       -3.652746   -1.451306   -0.876174
 ---------------------------------------------------------------------

 SCF Done:  E(RHF) =  -511.012499237     A.U. after   17 cycles
 E2 =    -0.1755619903D+01 EUMP2 =    -0.51276811914059D+03

 The electronic state is 1-A.
 Alpha  occ. eigenvalues --  -15.84968 -15.77749 -15.68506 -11.45726 -11.44217
 Alpha  occ. eigenvalues --  -11.41624 -11.40287 -11.39821 -11.38870 -11.37658
 Alpha  occ. eigenvalues --  -11.36567 -11.36182  -1.48935  -1.46415  -1.34181
 Alpha  occ. eigenvalues --   -1.24116  -1.21244  -1.14404  -1.12335  -1.04551
 Alpha  occ. eigenvalues --   -0.98463  -0.96529  -0.93194  -0.91795  -0.90861
 Alpha  occ. eigenvalues --   -0.83567  -0.81737  -0.80440  -0.78709  -0.75993
 Alpha  occ. eigenvalues --   -0.75236  -0.74560  -0.73283  -0.69735  -0.69106
 Alpha  occ. eigenvalues --   -0.67151  -0.65599  -0.64215  -0.59263  -0.57977
 Alpha  occ. eigenvalues --   -0.55677  -0.44865  -0.41260
 Alpha virt. eigenvalues --   -0.08842  -0.06184  -0.05978  -0.05135  -0.03838
 Alpha virt. eigenvalues --   -0.03583  -0.03467  -0.02951  -0.02462  -0.01748
 Alpha virt. eigenvalues --   -0.01509  -0.00603   0.00128   0.00506   0.00912

 Mulliken charges:
               1
     1  N   -0.433972
     2  H    0.183583
     3  H    0.254286
     4  C    0.941666
     5  H   -0.141442
     6  H   -0.139754
     7  C    0.295137
     8  H    0.026590
     9  H    0.056617
    10  C    0.068669
    11  C    1.157863
    12  H   -0.445000
    13  N   -0.732363
    14  C    0.730624
    15  H   -0.488371
    16  C    0.754495
    17  H   -0.426934
    18  C    0.003822
    19  H   -0.413656
    20  C    1.464657
    21  H   -0.511980
    22  C   -0.529393
    23  N   -0.917821
    24  H    0.242677
 Sum of Mulliken charges =   1.00000

 Dipole moment (field-independent basis, Debye):
    X=             -8.1335    Y=             -1.9299    Z=              0.7878  Tot=              8.3964
 Quadrupole moment (field-independent basis, Debye-Ang):
   XX=             -6.5205   YY=            -50.3172   ZZ=            -71.5851
   XY=             12.2365   XZ=             -0.1256   YZ=              0.1266

 Normal termination of Gaussian 16 at Sun Jul 11 16:48:17 2021.
