 Gaussian 16, Revision B.01,

 -----------------------------------------------------------
 #p b3lyp/6-31G(d) opt freq scrf=(iefpcm,read,solvent=water)
 -----------------------------------------------------------

 -----------------------------------------
 SET_328_BBB285_conf1.geo_120_075 geometry
 -----------------------------------------
 Symbolic Z-matrix:
 Charge = -1 Multiplicity = 1

 SCF Done:  E(RB3LYP) =  -906.610141640     A.U. after   15 cycles
 SCF Done:  E(RB3LYP) =  -906.645702512     A.U. after   11 cycles
 SCF Done:  E(RB3LYP) =  -906.660383786     A.U. after   11 cycles
 SCF Done:  E(RB3LYP) =  -906.662674925     A.U. after   11 cycles
 SCF Done:  E(RB3LYP) =  -906.663335272     A.U. after   11 cycles
 SCF Done:  E(RB3LYP) =  -906.664467912     A.U. after   10 cycles
 SCF Done:  E(RB3LYP) =  -906.665030730     A.U. after   11 cycles
 SCF Done:  E(RB3LYP) =  -906.665891529     A.U. after   11 cycles
 SCF Done:  E(RB3LYP) =  -906.666123252     A.U. after   12 cycles
 SCF Done:  E(RB3LYP) =  -906.667102868     A.U. after   11 cycles
 SCF Done:  E(RB3LYP) =  -906.667351268     A.U. after    8 cycles
 SCF Done:  E(RB3LYP) =  -906.667352563     A.U. after    8 cycles
 SCF Done:  E(RB3LYP) =  -906.667355524     A.U. after    8 cycles
 SCF Done:  E(RB3LYP) =  -906.667356245     A.U. after    7 cycles
 SCF Done:  E(RB3LYP) =  -906.667356350     A.U. after    7 cycles
 SCF Done:  E(RB3LYP) =  -906.667356654     A.U. after    6 cycles
 Optimization completed.
    -- Stationary point found.
 Normal termination of Gaussian 16 at Sun Jul 11 16:24:51 2021.

 --------------------------------------------------------------------
 #P Geom=AllCheck Guess=TCheck SCRF=Check GenChk RB3LYP/6-31G(d) Freq
 --------------------------------------------------------------------

 Structure from the checkpoint file:  "SET_328_BBB285_conf1.geo_120_075.chk"
 -----------------------------------------
 SET_328_BBB285_conf1.geo_120_075 geometry
 -----------------------------------------
 Charge = -1 Multiplicity = 1

 SCF Done:  E(RB3LYP) =  -906.667356654     A.U. after    1 cycles

  Exact polarizability: 200.567  -6.962 130.584  -2.410 -29.433 149.983
 Approx polarizability: 210.592  -6.258 149.387  -6.373 -40.294 181.432

                      1                      2                      3
                      A                      A                      A
 Frequencies --     25.7784                39.1400                49.8386
 Red. masses --      8.0368                 6.4539                 7.0697
 Frc consts  --      0.0031                 0.0058                 0.0103
 IR Inten    --      5.5350                 0.9639                 7.7835

                      4                      5                      6
                      A                      A                      A
 Frequencies --     76.4816                95.8789               113.2133
 Red. masses --      6.2550                 4.7342                 4.8394
 Frc consts  --      0.0216                 0.0256                 0.0365
 IR Inten    --      8.2887                 7.6914                 5.9093

                      7                      8                      9
                      A                      A                      A
 Frequencies --    132.0665               172.4097               195.1752
 Red. masses --      7.0250                 4.0008                 8.4729
 Frc consts  --      0.0722                 0.0701                 0.1902
 IR Inten    --      5.1664                 7.6024                 4.8885

                     10                     11                     12
                      A                      A                      A
 Frequencies --    219.3164               254.4583               281.5017
 Red. masses --      6.7861                 4.2756                 4.1983
 Frc consts  --      0.1923                 0.1631                 0.1960
 IR Inten    --     17.0301                22.8214                20.4128

                     13                     14                     15
                      A                      A                      A
 Frequencies --    292.1579               323.6692               337.1636
 Red. masses --      7.8561                 1.5931                 2.2359
 Frc consts  --      0.3951                 0.0983                 0.1498
 IR Inten    --     14.2646                97.3710                61.6766

                     16                     17                     18
                      A                      A                      A
 Frequencies --    367.6166               409.0689               431.9871
 Red. masses --      1.4111                 4.1296                 3.9025
 Frc consts  --      0.1124                 0.4071                 0.4291
 IR Inten    --    178.8291                50.0370                13.8577

                     19                     20                     21
                      A                      A                      A
 Frequencies --    472.0716               494.7610               528.0271
 Red. masses --      3.0463                 1.5332                 3.0964
 Frc consts  --      0.4000                 0.2211                 0.5087
 IR Inten    --     21.8926               196.5994                49.8349

                     22                     23                     24
                      A                      A                      A
 Frequencies --    538.8451               595.7625               630.8762
 Red. masses --      6.6988                 5.1832                 4.4713
 Frc consts  --      1.1460                 1.0839                 1.0485
 IR Inten    --      6.1598                 8.8476                44.7251

                     25                     26                     27
                      A                      A                      A
 Frequencies --    688.3098               746.7683               750.2368
 Red. masses --      9.4559                 1.3875                 5.3376
 Frc consts  --      2.6395                 0.4559                 1.7701
 IR Inten    --      1.3849                83.2703                15.7609

                     28                     29                     30
                      A                      A                      A
 Frequencies --    759.9329               774.3299               782.4727
 Red. masses --      7.3523                 4.1047                 4.1780
 Frc consts  --      2.5016                 1.4501                 1.5071
 IR Inten    --     57.8735                91.1759                 1.4010

                     31                     32                     33
                      A                      A                      A
 Frequencies --    820.6437               857.6407               891.0762
 Red. masses --      3.7257                 3.4828                 1.4217
 Frc consts  --      1.4783                 1.5094                 0.6651
 IR Inten    --    127.6845               120.3693                14.9281

                     34                     35                     36
                      A                      A                      A
 Frequencies --    901.1330               971.1454              1008.9936
 Red. masses --      3.5513                 3.3747                 4.8763
 Frc consts  --      1.6991                 1.8752                 2.9250
 IR Inten    --     19.4976                67.2850                82.3194

                     37                     38                     39
                      A                      A                      A
 Frequencies --   1025.2790              1030.3398              1043.8088
 Red. masses --      2.1254                 2.7645                 4.0404
 Frc consts  --      1.3164                 1.7291                 2.5937
 IR Inten    --     27.3889                43.2095                44.0615

                     40                     41                     42
                      A                      A                      A
 Frequencies --   1064.8287              1094.5910              1102.1853
 Red. masses --      4.3394                 3.3664                 3.5023
 Frc consts  --      2.8989                 2.3764                 2.5068
 IR Inten    --    346.7753                28.7611               312.3034

                     43                     44                     45
                      A                      A                      A
 Frequencies --   1127.7559              1139.8309              1171.7313
 Red. masses --      3.1950                 4.7134                 1.8063
 Frc consts  --      2.3942                 3.6080                 1.4611
 IR Inten    --     35.2679                27.6919                21.6674

                     46                     47                     48
                      A                      A                      A
 Frequencies --   1206.5410              1213.3317              1226.3627
 Red. masses --      1.4935                 1.2335                 1.2265
 Frc consts  --      1.2810                 1.0699                 1.0868
 IR Inten    --    200.0242                 2.3232                36.0408

                     49                     50                     51
                      A                      A                      A
 Frequencies --   1245.8926              1254.7991              1319.9864
 Red. masses --      1.6856                 1.5706                 9.1432
 Frc consts  --      1.5416                 1.4571                 9.3862
 IR Inten    --     70.7809                30.8355                80.8481

                     52                     53                     54
                      A                      A                      A
 Frequencies --   1320.8442              1327.7187              1352.0591
 Red. masses --      1.4161                 1.3926                 1.3858
 Frc consts  --      1.4556                 1.4464                 1.4926
 IR Inten    --     19.8589                14.7268                41.1581

                     55                     56                     57
                      A                      A                      A
 Frequencies --   1363.0977              1369.1068              1388.3712
 Red. masses --      3.6998                 1.3633                 1.4096
 Frc consts  --      4.0502                 1.5057                 1.6009
 IR Inten    --    367.8962                80.1787                44.4846

                     58                     59                     60
                      A                      A                      A
 Frequencies --   1400.8759              1409.3754              1420.6558
 Red. masses --      1.4671                 1.2029                 5.5221
 Frc consts  --      1.6963                 1.4078                 6.5665
 IR Inten    --     27.9404                39.6378                60.3651

                     61                     62                     63
                      A                      A                      A
 Frequencies --   1437.8194              1439.8897              1451.3547
 Red. masses --      1.6191                 1.4299                 1.8584
 Frc consts  --      1.9721                 1.7467                 2.3064
 IR Inten    --     47.0908                22.0351                47.5355

                     64                     65                     66
                      A                      A                      A
 Frequencies --   1454.7544              1526.0239              1543.0652
 Red. masses --      3.5468                 1.0927                 5.4286
 Frc consts  --      4.4225                 1.4992                 7.6157
 IR Inten    --    109.4441                 1.4249                28.5140

                     67                     68                     69
                      A                      A                      A
 Frequencies --   1653.5806              3060.8592              3083.0170
 Red. masses --      8.0589                 1.0676                 1.0861
 Frc consts  --     12.9830                 5.8933                 6.0826
 IR Inten    --    641.6285                40.5312                64.3679

                     70                     71                     72
                      A                      A                      A
 Frequencies --   3094.0419              3133.1366              3150.7605
 Red. masses --      1.0856                 1.0866                 1.0979
 Frc consts  --      6.1233                 6.2849                 6.4214
 IR Inten    --     54.7995                43.2725                53.4852

                     73                     74                     75
                      A                      A                      A
 Frequencies --   3164.4596              3309.7866              3451.6862
 Red. masses --      1.0871                 1.0976                 1.0731
 Frc consts  --      6.4141                 7.0840                 7.5327
 IR Inten    --     14.9866                 2.1149                 2.8538

                     76                     77                     78
                      A                      A                      A
 Frequencies --   3615.9716              3702.7341              3715.1910
 Red. masses --      1.0651                 1.0665                 1.0659
 Frc consts  --      8.2052                 8.6152                 8.6682
 IR Inten    --    163.9142               146.5185                67.3006

 - Thermochemistry -
 -------------------
 Temperature   298.150 Kelvin.  Pressure   1.00000 Atm.
 Atom     1 has atomic number  7 and mass  14.00307

 Molecular mass:   243.07294 amu.
 Principal axes and moments of inertia in atomic units:
                           1         2         3
     Eigenvalues --  1643.598698194.010838606.71752
           X            1.00000  -0.00144   0.00174
           Y            0.00150   0.99946  -0.03281
           Z           -0.00169   0.03282   0.99946
 This molecule is an asymmetric top.
 Rotational symmetry number  1.
 Warning -- assumption of classical behavior for rotation
           may cause significant error
 Rotational temperatures (Kelvin)      0.05270     0.01057     0.01006
 Rotational constants (GHZ):           1.09804     0.22025     0.20969
 Zero-point vibrational energy     560076.3 (Joules/Mol)
                                  133.86145 (Kcal/Mol)
 Warning -- explicit consideration of  23 degrees of freedom as
           vibrations may cause significant error
 Vibrational temperatures:     37.09    56.31    71.71   110.04   137.95
          (Kelvin)            162.89   190.01   248.06   280.81   315.55
                              366.11   405.02   420.35   465.69   485.10
                              528.92   588.56   621.53   679.21   711.85
                              759.71   775.28   857.17   907.69   990.32
                             1074.43  1079.42  1093.37  1114.09  1125.80
                             1180.72  1233.95  1282.06  1296.53  1397.26
                             1451.72  1475.15  1482.43  1501.81  1532.05
                             1574.87  1585.80  1622.59  1639.96  1685.86
                             1735.94  1745.71  1764.46  1792.56  1805.38
                             1899.17  1900.40  1910.29  1945.31  1961.19
                             1969.84  1997.56  2015.55  2027.78  2044.01
                             2068.70  2071.68  2088.18  2093.07  2195.61
                             2220.13  2379.13  4403.89  4435.77  4451.64
                             4507.88  4533.24  4552.95  4762.04  4966.21
                             5202.58  5327.41  5345.33

 Zero-point correction=                           0.213322 (Hartree/Particle)
 Thermal correction to Energy=                    0.228895
 Thermal correction to Enthalpy=                  0.229839
 Thermal correction to Gibbs Free Energy=         0.168614
 Sum of electronic and zero-point Energies=           -906.454035
 Sum of electronic and thermal Energies=              -906.438461
 Sum of electronic and thermal Enthalpies=            -906.437517
 Sum of electronic and thermal Free Energies=         -906.498743

                     E (Thermal)             CV                S
                      KCal/Mol        Cal/Mol-Kelvin    Cal/Mol-Kelvin
 Total                  143.634             57.603            128.860
 Electronic               0.000              0.000              0.000
 Translational            0.889              2.981             42.366
 Rotational               0.889              2.981             33.116
 Vibrational            141.856             51.642             53.378
 Vibration     1          0.593              1.985              6.130
 Vibration     2          0.594              1.981              5.302
 Vibration     3          0.595              1.978              4.824
 Vibration     4          0.599              1.965              3.979
 Vibration     5          0.603              1.952              3.536
 Vibration     6          0.607              1.939              3.213
 Vibration     7          0.612              1.921              2.916
 Vibration     8          0.626              1.876              2.409
 Vibration     9          0.636              1.847              2.178
 Vibration    10          0.647              1.812              1.965
 Vibration    11          0.665              1.755              1.699
 Vibration    12          0.681              1.708              1.525
 Vibration    13          0.688              1.688              1.461
 Vibration    14          0.708              1.628              1.291
 Vibration    15          0.718              1.601              1.226
 Vibration    16          0.740              1.539              1.090
 Vibration    17          0.773              1.451              0.930
 Vibration    18          0.793              1.401              0.852
 Vibration    19          0.829              1.312              0.732
 Vibration    20          0.850              1.262              0.671
 Vibration    21          0.883              1.188              0.592
 Vibration    22          0.894              1.164              0.568
 Vibration    23          0.954              1.041              0.457

 Optimization completed.
    -- Stationary point found.
 Normal termination of Gaussian 16 at Sun Jul 11 16:32:44 2021.

 ----------------------------------------------------------------------
 #p b3lyp/6-31G(d) scrf=(iefpcm,read,solvent=water) geom=allcheck guess
 =read
 ----------------------------------------------------------------------

 Structure from the checkpoint file:  "SET_328_BBB285_conf1.geo_120_075.chk"
 -----------------------------------------
 SET_328_BBB285_conf1.geo_120_075 geometry
 -----------------------------------------
 Charge = -1 Multiplicity = 1

 SCF Done:  E(RB3LYP) =  -906.667356654     A.U. after    1 cycles
 Normal termination of Gaussian 16 at Sun Jul 11 16:32:51 2021.

 -----------------------------
 #p B3LYP/6-31G* geom=allcheck
 -----------------------------

 Structure from the checkpoint file:  "SET_328_BBB285_conf1.geo_120_075.chk"
 -----------------------------------------
 SET_328_BBB285_conf1.geo_120_075 geometry
 -----------------------------------------
 Charge = -1 Multiplicity = 1

 SCF Done:  E(RB3LYP) =  -906.538517779     A.U. after   17 cycles
 Normal termination of Gaussian 16 at Sun Jul 11 16:33:29 2021.
 Gaussian 16:  ES64L-G16RevB.01 20-Dec-2017

 --------------------------------------------------------
 #p mp2/aug-cc-pVDZ scf=tight maxdisk=180GB geom=allcheck
 --------------------------------------------------------

 Structure from the checkpoint file:  "SET_328_BBB285_conf1.geo_120_075.chk"
 -----------------------------------------
 SET_328_BBB285_conf1.geo_120_075 geometry
 -----------------------------------------
 Charge = -1 Multiplicity = 1

                         Standard orientation:
 ---------------------------------------------------------------------
 Center     Atomic      Atomic             Coordinates (Angstroms)
 Number     Number       Type             X           Y           Z
 ---------------------------------------------------------------------
      1          7           0       -4.784381    1.026607   -1.102561
      2          1           0       -3.962889    1.264914   -1.662517
      3          6           0       -4.394130    0.306329   -0.068884
      4          8           0       -5.147347   -0.167446    0.837137
      5          6           0       -2.927532   -0.023418    0.113325
      6          6           0       -2.350584   -0.797248    1.141500
      7          7           0       -1.031931   -0.863363    0.958677
      8          1           0       -2.829282   -1.291923    1.971666
      9          7           0       -1.936015    0.378747   -0.692691
     10          7           0       -0.834194   -0.150693   -0.155540
     11          6           0        0.493942    0.117327   -0.700890
     12          1           0        0.312896    0.544967   -1.685606
     13          8           0        1.183184    1.054401    0.110495
     14          6           0        2.314901    0.449976    0.782247
     15          6           0        3.592971    1.083478    0.242606
     16          8           0        3.618564    2.481439    0.498759
     17          1           0        2.847465    2.860045    0.042080
     18          1           0        3.678687    0.868320   -0.829316
     19          1           0        4.454580    0.648567    0.751528
     20          1           0        2.221642    0.692767    1.844816
     21          6           0        2.187880   -1.063242    0.530526
     22          8           0        3.468433   -1.658640    0.389717
     23          1           0        3.371827   -2.614549    0.552221
     24          1           0        1.624471   -1.529139    1.340128
     25          6           0        1.370222   -1.137355   -0.777755
     26          1           0        0.770116   -2.050111   -0.848176
     27          8           0        2.229806   -0.999983   -1.896161
     28          1           0        3.069002   -1.426188   -1.627639
 ---------------------------------------------------------------------

 SCF Done:  E(RHF) =  -901.539177795     A.U. after   16 cycles
 E2 =    -0.2817768778D+01 EUMP2 =    -0.90435694657301D+03

 The electronic state is 1-A.
 Alpha  occ. eigenvalues --  -20.54054 -20.50876 -20.50258 -20.49642 -20.31189
 Alpha  occ. eigenvalues --  -15.56596 -15.50735 -15.50033 -15.32918 -11.25737
 Alpha  occ. eigenvalues --  -11.23678 -11.22771 -11.22279 -11.20928 -11.14917
 Alpha  occ. eigenvalues --  -11.14859 -11.13632  -1.35367  -1.33640  -1.31027
 Alpha  occ. eigenvalues --   -1.29799  -1.28346  -1.14521  -1.07418  -1.02944
 Alpha  occ. eigenvalues --   -0.98201  -0.95249  -0.92275  -0.84541  -0.77070
 Alpha  occ. eigenvalues --   -0.74294  -0.72968  -0.69142  -0.66865  -0.64576
 Alpha  occ. eigenvalues --   -0.63071  -0.62144  -0.59141  -0.58238  -0.57682
 Alpha  occ. eigenvalues --   -0.55494  -0.52697  -0.52364  -0.50523  -0.50194
 Alpha  occ. eigenvalues --   -0.49859  -0.48214  -0.48000  -0.47293  -0.44297
 Alpha  occ. eigenvalues --   -0.42291  -0.39752  -0.39514  -0.39079  -0.37738
 Alpha  occ. eigenvalues --   -0.37202  -0.35593  -0.35362  -0.34852  -0.28129
 Alpha  occ. eigenvalues --   -0.24000  -0.23403  -0.21247  -0.15286
 Alpha virt. eigenvalues --    0.08170   0.10551   0.10702   0.11594   0.12408
 Alpha virt. eigenvalues --    0.12836   0.13032   0.13890   0.14576   0.15537
 Alpha virt. eigenvalues --    0.17036   0.18232   0.18677   0.19581   0.20003

 Mulliken charges:
               1
     1  N   -0.697950
     2  H   -0.017648
     3  C    0.997163
     4  O   -1.027425
     5  C    0.848850
     6  C    0.428164
     7  N   -0.436735
     8  H   -0.389184
     9  N   -0.906032
    10  N   -0.397371
    11  C    1.637178
    12  H   -0.286767
    13  O   -1.286680
    14  C    0.636291
    15  C    1.143850
    16  O   -0.758622
    17  H    0.180481
    18  H   -0.129329
    19  H   -0.109550
    20  H   -0.311168
    21  C    0.804255
    22  O   -0.866507
    23  H    0.131945
    24  H   -0.161996
    25  C    0.858936
    26  H   -0.205867
    27  O   -0.888330
    28  H    0.210049
 Sum of Mulliken charges =  -1.00000

 Dipole moment (field-independent basis, Debye):
    X=             21.2836    Y=             -5.7549    Z=              0.8826  Tot=             22.0656
 Quadrupole moment (field-independent basis, Debye-Ang):
   XX=           -234.7325   YY=           -102.9257   ZZ=           -110.4734
   XY=             -2.4066   XZ=             -3.0239   YZ=             -1.8330

 Normal termination of Gaussian 16 at Sun Jul 11 17:04:02 2021.
