 Gaussian 16, Revision B.01,

 -----------------------------------------------------------
 #p b3lyp/6-31G(d) opt freq scrf=(iefpcm,read,solvent=water)
 -----------------------------------------------------------

 -----------------------------------------
 SET_328_BBB285_conf1.geo_120_300 geometry
 -----------------------------------------
 Symbolic Z-matrix:
 Charge = -1 Multiplicity = 1

 SCF Done:  E(RB3LYP) =  -906.593009097     A.U. after   14 cycles
 SCF Done:  E(RB3LYP) =  -906.635134320     A.U. after   11 cycles
 SCF Done:  E(RB3LYP) =  -906.654241407     A.U. after   12 cycles
 SCF Done:  E(RB3LYP) =  -906.658748884     A.U. after   11 cycles
 SCF Done:  E(RB3LYP) =  -906.659874969     A.U. after   11 cycles
 SCF Done:  E(RB3LYP) =  -906.663255130     A.U. after   11 cycles
 SCF Done:  E(RB3LYP) =  -906.663801890     A.U. after   11 cycles
 SCF Done:  E(RB3LYP) =  -906.665236908     A.U. after   11 cycles
 SCF Done:  E(RB3LYP) =  -906.666548150     A.U. after   11 cycles
 SCF Done:  E(RB3LYP) =  -906.666702215     A.U. after   13 cycles
 SCF Done:  E(RB3LYP) =  -906.668848178     A.U. after   11 cycles
 SCF Done:  E(RB3LYP) =  -906.668799445     A.U. after   11 cycles
 SCF Done:  E(RB3LYP) =  -906.668706483     A.U. after   11 cycles
 SCF Done:  E(RB3LYP) =  -906.668828722     A.U. after   11 cycles
 SCF Done:  E(RB3LYP) =  -906.668830336     A.U. after    8 cycles
 SCF Done:  E(RB3LYP) =  -906.668830399     A.U. after    7 cycles
 Optimization completed.
    -- Stationary point found.
 Normal termination of Gaussian 16 at Sun Jul 11 16:36:59 2021.

 --------------------------------------------------------------------
 #P Geom=AllCheck Guess=TCheck SCRF=Check GenChk RB3LYP/6-31G(d) Freq
 --------------------------------------------------------------------

 Structure from the checkpoint file:  "SET_328_BBB285_conf1.geo_120_300.chk"
 -----------------------------------------
 SET_328_BBB285_conf1.geo_120_300 geometry
 -----------------------------------------
 Charge = -1 Multiplicity = 1

 SCF Done:  E(RB3LYP) =  -906.668830399     A.U. after    1 cycles

  Exact polarizability: 194.417   6.065 116.180   1.246  -5.465 171.912
 Approx polarizability: 203.655   7.871 127.978   8.031  -9.037 209.942

 ******    1 imaginary frequencies (negative Signs) ******

                      1                      2                      3
                      A                      A                      A
 Frequencies --     -3.4254                30.5021                53.7867
 Red. masses --      6.0185                 8.0575                 6.8956
 Frc consts  --      0.0000                 0.0044                 0.0118
 IR Inten    --      3.3612                 5.6340                 5.0444

                      4                      5                      6
                      A                      A                      A
 Frequencies --     73.5058                91.9082               124.9253
 Red. masses --      6.7686                 6.6352                 7.3621
 Frc consts  --      0.0215                 0.0330                 0.0677
 IR Inten    --      3.1981                 1.0550                 6.6767

                      7                      8                      9
                      A                      A                      A
 Frequencies --    156.9512               197.3593               211.3338
 Red. masses --      6.6343                 7.1873                 4.6491
 Frc consts  --      0.0963                 0.1649                 0.1223
 IR Inten    --      2.4710                 7.3308                10.9972

                     10                     11                     12
                      A                      A                      A
 Frequencies --    239.5918               256.0963               284.4157
 Red. masses --      4.3431                 4.6222                 5.7192
 Frc consts  --      0.1469                 0.1786                 0.2726
 IR Inten    --     10.0363                15.9002                13.0712

                     13                     14                     15
                      A                      A                      A
 Frequencies --    316.7476               323.1823               359.5138
 Red. masses --      2.6820                 1.9351                 3.1220
 Frc consts  --      0.1585                 0.1191                 0.2377
 IR Inten    --     50.9647                44.9405                70.3371

                     16                     17                     18
                      A                      A                      A
 Frequencies --    365.2386               444.5166               462.5836
 Red. masses --      5.6634                 5.6090                 3.4958
 Frc consts  --      0.4451                 0.6530                 0.4407
 IR Inten    --     11.9112                16.9048                37.5630

                     19                     20                     21
                      A                      A                      A
 Frequencies --    490.3560               503.6831               538.9784
 Red. masses --      1.1513                 1.1444                 6.0803
 Frc consts  --      0.1631                 0.1711                 1.0407
 IR Inten    --    301.8788               101.8405                26.3705

                     22                     23                     24
                      A                      A                      A
 Frequencies --    567.3613               630.2487               671.7076
 Red. masses --      4.7684                 4.2004                 7.0122
 Frc consts  --      0.9044                 0.9830                 1.8641
 IR Inten    --     38.6718                46.1962                 3.0690

                     25                     26                     27
                      A                      A                      A
 Frequencies --    687.3305               708.4467               741.0230
 Red. masses --      6.0143                 5.9619                 1.3561
 Frc consts  --      1.6741                 1.7630                 0.4387
 IR Inten    --      0.4585                39.4218                63.0585

                     28                     29                     30
                      A                      A                      A
 Frequencies --    756.4933               782.5747               802.9001
 Red. masses --      7.2723                 4.4918                 5.6751
 Frc consts  --      2.4521                 1.6208                 2.1555
 IR Inten    --     65.6614                 2.2571               154.0155

                     31                     32                     33
                      A                      A                      A
 Frequencies --    835.2271               867.7952               891.3673
 Red. masses --      4.3232                 4.6552                 1.4167
 Frc consts  --      1.7769                 2.0655                 0.6632
 IR Inten    --     55.6185                33.9868                13.2363

                     34                     35                     36
                      A                      A                      A
 Frequencies --    906.4890               932.3986               975.3557
 Red. masses --      3.0911                 2.3719                 2.4067
 Frc consts  --      1.4965                 1.2149                 1.3490
 IR Inten    --     60.7741                 3.3466                29.4382

                     37                     38                     39
                      A                      A                      A
 Frequencies --   1002.9564              1034.4611              1047.6449
 Red. masses --      5.1055                 5.4191                 2.5273
 Frc consts  --      3.0259                 3.4167                 1.6343
 IR Inten    --     91.0739                89.3173                16.1480

                     40                     41                     42
                      A                      A                      A
 Frequencies --   1060.5209              1089.9580              1126.6220
 Red. masses --      2.9287                 7.2808                 3.5447
 Frc consts  --      1.9407                 5.0962                 2.6508
 IR Inten    --    103.9116               321.3276               103.9727

                     43                     44                     45
                      A                      A                      A
 Frequencies --   1130.7795              1155.0190              1165.0275
 Red. masses --      3.6131                 2.8649                 1.8101
 Frc consts  --      2.7220                 2.2518                 1.4475
 IR Inten    --    167.5910                70.4699                 4.9931

                     46                     47                     48
                      A                      A                      A
 Frequencies --   1203.1945              1214.9230              1231.4511
 Red. masses --      1.5595                 1.3044                 1.4672
 Frc consts  --      1.3302                 1.1344                 1.3109
 IR Inten    --    183.6184                29.3599                26.9555

                     49                     50                     51
                      A                      A                      A
 Frequencies --   1264.3636              1283.9310              1319.3416
 Red. masses --      1.1340                 1.8360                 8.5296
 Frc consts  --      1.0681                 1.7832                 8.7477
 IR Inten    --     40.1111                74.2101                96.7572

                     52                     53                     54
                      A                      A                      A
 Frequencies --   1323.6147              1340.6865              1354.4549
 Red. masses --      1.3472                 1.3751                 1.3093
 Frc consts  --      1.3906                 1.4562                 1.4152
 IR Inten    --     10.1518                43.9728                25.8512

                     55                     56                     57
                      A                      A                      A
 Frequencies --   1365.3328              1372.2703              1388.1962
 Red. masses --      4.0520                 1.5126                 1.3211
 Frc consts  --      4.4504                 1.6783                 1.5000
 IR Inten    --    364.7036                60.1486                26.8388

                     58                     59                     60
                      A                      A                      A
 Frequencies --   1406.7044              1420.2253              1425.0846
 Red. masses --      1.4327                 6.0913                 1.4231
 Frc consts  --      1.6704                 7.2389                 1.7028
 IR Inten    --     47.3322                57.6507                 3.1506

                     61                     62                     63
                      A                      A                      A
 Frequencies --   1437.8845              1454.8503              1464.6112
 Red. masses --      1.4858                 5.3528                 1.6244
 Frc consts  --      1.8099                 6.6753                 2.0530
 IR Inten    --     18.0006               133.0254                29.6019

                     64                     65                     66
                      A                      A                      A
 Frequencies --   1487.3887              1528.4547              1544.4000
 Red. masses --      1.2373                 1.0854                 5.5479
 Frc consts  --      1.6128                 1.4940                 7.7965
 IR Inten    --    197.2021                 1.6118                28.7458

                     67                     68                     69
                      A                      A                      A
 Frequencies --   1655.0121              3008.4557              3039.0886
 Red. masses --      8.1693                 1.0709                 1.0845
 Frc consts  --     13.1837                 5.7106                 5.9013
 IR Inten    --    646.7315                89.4693                61.3610

                     70                     71                     72
                      A                      A                      A
 Frequencies --   3067.1157              3102.3871              3123.3112
 Red. masses --      1.0870                 1.0923                 1.0867
 Frc consts  --      6.0250                 6.1941                 6.2459
 IR Inten    --    101.7372                72.0351                 4.9290

                     73                     74                     75
                      A                      A                      A
 Frequencies --   3130.6543              3311.7720              3437.9625
 Red. masses --      1.0858                 1.0973                 1.0730
 Frc consts  --      6.2703                 7.0908                 7.4725
 IR Inten    --     35.6600                 2.2584                 2.8578

                     76                     77                     78
                      A                      A                      A
 Frequencies --   3584.5602              3612.5747              3716.4794
 Red. masses --      1.0654                 1.0650                 1.0665
 Frc consts  --      8.0658                 8.1889                 8.6792
 IR Inten    --    393.7362               129.3061               151.6378

 - Thermochemistry -
 -------------------
 Temperature   298.150 Kelvin.  Pressure   1.00000 Atm.
 Atom     1 has atomic number  7 and mass  14.00307

 Molecular mass:   243.07294 amu.
 Principal axes and moments of inertia in atomic units:
                           1         2         3
     Eigenvalues --  1652.633578124.234738570.23233
           X            0.99999  -0.00156  -0.00435
           Y            0.00163   0.99987   0.01605
           Z            0.00433  -0.01606   0.99986
 This molecule is an asymmetric top.
 Rotational symmetry number  1.
 Warning -- assumption of classical behavior for rotation
           may cause significant error
 Rotational temperatures (Kelvin)      0.05241     0.01066     0.01011
 Rotational constants (GHZ):           1.09204     0.22214     0.21058
    1 imaginary frequencies ignored.
 Zero-point vibrational energy     560543.9 (Joules/Mol)
                                  133.97321 (Kcal/Mol)
 Warning -- explicit consideration of  21 degrees of freedom as
           vibrations may cause significant error
 Vibrational temperatures:     43.89    77.39   105.76   132.24   179.74
          (Kelvin)            225.82   283.96   304.06   344.72   368.47
                              409.21   455.73   464.99   517.26   525.50
                              639.56   665.55   705.51   724.69   775.47
                              816.31   906.79   966.44   988.92  1019.30
                             1066.17  1088.43  1125.95  1155.19  1201.71
                             1248.56  1282.48  1304.24  1341.51  1403.32
                             1443.03  1488.36  1507.33  1525.85  1568.21
                             1620.96  1626.94  1661.81  1676.21  1731.13
                             1748.00  1771.78  1819.14  1847.29  1898.24
                             1904.39  1928.95  1948.76  1964.41  1974.39
                             1997.30  2023.93  2043.39  2050.38  2068.80
                             2093.21  2107.25  2140.02  2199.11  2222.05
                             2381.19  4328.50  4372.57  4412.90  4463.64
                             4493.75  4504.31  4764.90  4946.46  5157.38
                             5197.69  5347.18

 Zero-point correction=                           0.213500 (Hartree/Particle)
 Thermal correction to Energy=                    0.227858
 Thermal correction to Enthalpy=                  0.228802
 Thermal correction to Gibbs Free Energy=         0.171100
 Sum of electronic and zero-point Energies=           -906.455331
 Sum of electronic and thermal Energies=              -906.440972
 Sum of electronic and thermal Enthalpies=            -906.440028
 Sum of electronic and thermal Free Energies=         -906.497730

                     E (Thermal)             CV                S
                      KCal/Mol        Cal/Mol-Kelvin    Cal/Mol-Kelvin
 Total                  142.983             54.975            121.444
 Electronic               0.000              0.000              0.000
 Translational            0.889              2.981             42.366
 Rotational               0.889              2.981             33.109
 Vibrational            141.206             49.013             45.970
 Vibration     1          0.594              1.984              5.796
 Vibration     2          0.596              1.976              4.673
 Vibration     3          0.599              1.966              4.057
 Vibration     4          0.602              1.955              3.619
 Vibration     5          0.610              1.928              3.023
 Vibration     6          0.621              1.895              2.586
 Vibration     7          0.637              1.844              2.158
 Vibration     8          0.643              1.824              2.032
 Vibration     9          0.657              1.780              1.806
 Vibration    10          0.666              1.752              1.688
 Vibration    11          0.683              1.703              1.507
 Vibration    12          0.704              1.642              1.327
 Vibration    13          0.708              1.629              1.294
 Vibration    14          0.734              1.556              1.124
 Vibration    15          0.738              1.544              1.100
 Vibration    16          0.804              1.373              0.813
 Vibration    17          0.820              1.333              0.759
 Vibration    18          0.846              1.271              0.683
 Vibration    19          0.859              1.242              0.649
 Vibration    20          0.894              1.164              0.567
 Vibration    21          0.923              1.102              0.509

                           ! Non-Optimized Parameters !
 Normal termination of Gaussian 16 at Sun Jul 11 16:45:02 2021.

 ----------------------------------------------------------------------
 #p b3lyp/6-31G(d) scrf=(iefpcm,read,solvent=water) geom=allcheck guess
 =read
 ----------------------------------------------------------------------

 Structure from the checkpoint file:  "SET_328_BBB285_conf1.geo_120_300.chk"
 -----------------------------------------
 SET_328_BBB285_conf1.geo_120_300 geometry
 -----------------------------------------
 Charge = -1 Multiplicity = 1

 SCF Done:  E(RB3LYP) =  -906.668830399     A.U. after    1 cycles
 Normal termination of Gaussian 16 at Sun Jul 11 16:45:09 2021.

 -----------------------------
 #p B3LYP/6-31G* geom=allcheck
 -----------------------------

 Structure from the checkpoint file:  "SET_328_BBB285_conf1.geo_120_300.chk"
 -----------------------------------------
 SET_328_BBB285_conf1.geo_120_300 geometry
 -----------------------------------------
 Charge = -1 Multiplicity = 1

 SCF Done:  E(RB3LYP) =  -906.536549386     A.U. after   17 cycles
 Normal termination of Gaussian 16 at Sun Jul 11 16:45:46 2021.
 Gaussian 16:  ES64L-G16RevB.01 20-Dec-2017

 --------------------------------------------------------
 #p mp2/aug-cc-pVDZ scf=tight maxdisk=180GB geom=allcheck
 --------------------------------------------------------

 Structure from the checkpoint file:  "SET_328_BBB285_conf1.geo_120_300.chk"
 -----------------------------------------
 SET_328_BBB285_conf1.geo_120_300 geometry
 -----------------------------------------
 Charge = -1 Multiplicity = 1

                         Standard orientation:
 ---------------------------------------------------------------------
 Center     Atomic      Atomic             Coordinates (Angstroms)
 Number     Number       Type             X           Y           Z
 ---------------------------------------------------------------------
      1          7           0       -4.582390   -0.593699    1.642529
      2          1           0       -3.704386   -0.528812    2.164850
      3          6           0       -4.331546   -0.368551    0.367921
      4          8           0       -5.186991   -0.368378   -0.570450
      5          6           0       -2.916095   -0.081091   -0.083484
      6          6           0       -2.478457    0.203978   -1.393587
      7          7           0       -1.161264    0.402107   -1.389234
      8          1           0       -3.054795    0.275593   -2.302155
      9          7           0       -1.840099   -0.055528    0.713232
     10          7           0       -0.827087    0.248735   -0.102423
     11          6           0        0.555810    0.241625    0.360868
     12          1           0        0.490070    0.335075    1.446988
     13          8           0        1.192116   -0.969972    0.014666
     14          6           0        2.356938   -0.720106   -0.805251
     15          6           0        3.412066   -1.780601   -0.500337
     16          8           0        3.758190   -1.864138    0.870253
     17          1           0        3.892227   -0.940501    1.162099
     18          1           0        4.285743   -1.572556   -1.137659
     19          1           0        3.023632   -2.761104   -0.791948
     20          1           0        2.079189   -0.804220   -1.864595
     21          6           0        2.751348    0.731003   -0.518755
     22          8           0        3.564190    0.828257    0.649166
     23          1           0        3.202833    1.580612    1.163495
     24          1           0        3.269063    1.183043   -1.372819
     25          6           0        1.383591    1.391072   -0.244341
     26          1           0        0.923044    1.723330   -1.176777
     27          8           0        1.468875    2.440974    0.703141
     28          1           0        1.696278    3.260306    0.227382
 ---------------------------------------------------------------------

 SCF Done:  E(RHF) =  -901.534952475     A.U. after   16 cycles
 E2 =    -0.2818420117D+01 EUMP2 =    -0.90435337259174D+03

 The electronic state is 1-A.
 Alpha  occ. eigenvalues --  -20.54147 -20.52315 -20.49716 -20.47859 -20.30972
 Alpha  occ. eigenvalues --  -15.56383 -15.50478 -15.49725 -15.32690 -11.25726
 Alpha  occ. eigenvalues --  -11.24063 -11.23948 -11.22759 -11.21401 -11.14694
 Alpha  occ. eigenvalues --  -11.14610 -11.13401  -1.35720  -1.33400  -1.31554
 Alpha  occ. eigenvalues --   -1.29941  -1.27270  -1.14313  -1.07143  -1.02789
 Alpha  occ. eigenvalues --   -0.98883  -0.95093  -0.92718  -0.84093  -0.77730
 Alpha  occ. eigenvalues --   -0.74196  -0.72761  -0.69419  -0.66756  -0.65955
 Alpha  occ. eigenvalues --   -0.63298  -0.61485  -0.59522  -0.58575  -0.56110
 Alpha  occ. eigenvalues --   -0.55157  -0.54475  -0.52061  -0.50920  -0.49586
 Alpha  occ. eigenvalues --   -0.49454  -0.49189  -0.47818  -0.47233  -0.44935
 Alpha  occ. eigenvalues --   -0.42337  -0.39667  -0.39112  -0.37814  -0.37593
 Alpha  occ. eigenvalues --   -0.36838  -0.35952  -0.35140  -0.34925  -0.27848
 Alpha  occ. eigenvalues --   -0.23760  -0.23209  -0.21033  -0.15057
 Alpha virt. eigenvalues --    0.08023   0.09515   0.10544   0.11272   0.12325
 Alpha virt. eigenvalues --    0.12897   0.12988   0.13943   0.14655   0.15626
 Alpha virt. eigenvalues --    0.17382   0.17714   0.18477   0.19043   0.19755

 Mulliken charges:
               1
     1  N   -0.698254
     2  H   -0.013232
     3  C    0.948174
     4  O   -1.025332
     5  C    0.879698
     6  C    0.454313
     7  N   -0.385112
     8  H   -0.370335
     9  N   -1.062608
    10  N   -0.438880
    11  C    1.983254
    12  H   -0.303316
    13  O   -1.181533
    14  C    0.129256
    15  C    1.286046
    16  O   -0.724562
    17  H    0.255335
    18  H   -0.101542
    19  H   -0.088065
    20  H   -0.223860
    21  C    0.978854
    22  O   -1.035275
    23  H    0.262026
    24  H   -0.166636
    25  C    0.583921
    26  H   -0.257920
    27  O   -0.841164
    28  H    0.156746
 Sum of Mulliken charges =  -1.00000

 Dipole moment (field-independent basis, Debye):
    X=             21.5871    Y=              6.6773    Z=             -4.9776  Tot=             23.1380
 Quadrupole moment (field-independent basis, Debye-Ang):
   XX=           -230.2935   YY=           -101.9364   ZZ=           -110.0604
   XY=              0.3968   XZ=              4.2912   YZ=              4.8661

 Normal termination of Gaussian 16 at Sun Jul 11 17:19:06 2021.
