 Gaussian 16, Revision B.01,

 -----------------------------------------------------------
 #p b3lyp/6-31G(d) opt freq scrf=(iefpcm,read,solvent=water)
 -----------------------------------------------------------

 -----------------------------------------
 SET_328_BBB212_conf1.geo_060_045 geometry
 -----------------------------------------
 Symbolic Z-matrix:
 Charge = -1 Multiplicity = 1

 SCF Done:  E(RB3LYP) =  -731.149879978     A.U. after   13 cycles
 SCF Done:  E(RB3LYP) =  -731.181288680     A.U. after   11 cycles
 SCF Done:  E(RB3LYP) =  -731.194438925     A.U. after   12 cycles
 SCF Done:  E(RB3LYP) =  -731.195851592     A.U. after   11 cycles
 SCF Done:  E(RB3LYP) =  -731.196068149     A.U. after   10 cycles
 SCF Done:  E(RB3LYP) =  -731.195832693     A.U. after   11 cycles
 SCF Done:  E(RB3LYP) =  -731.196190284     A.U. after   10 cycles
 SCF Done:  E(RB3LYP) =  -731.196216352     A.U. after    8 cycles
 SCF Done:  E(RB3LYP) =  -731.196196646     A.U. after    9 cycles
 SCF Done:  E(RB3LYP) =  -731.196204037     A.U. after    8 cycles
 SCF Done:  E(RB3LYP) =  -731.196216332     A.U. after    9 cycles
 SCF Done:  E(RB3LYP) =  -731.196199372     A.U. after    9 cycles
 SCF Done:  E(RB3LYP) =  -731.196199846     A.U. after    7 cycles
 Optimization completed.
    -- Stationary point found.
 Normal termination of Gaussian 16 at Sun Jul 11 16:11:07 2021.

 --------------------------------------------------------------------
 #P Geom=AllCheck Guess=TCheck SCRF=Check GenChk RB3LYP/6-31G(d) Freq
 --------------------------------------------------------------------

 Structure from the checkpoint file:  "SET_328_BBB212_conf1.geo_060_045.chk"
 -----------------------------------------
 SET_328_BBB212_conf1.geo_060_045 geometry
 -----------------------------------------
 Charge = -1 Multiplicity = 1

 SCF Done:  E(RB3LYP) =  -731.196199846     A.U. after    1 cycles

  Exact polarizability: 281.047  -9.482 202.554  34.950  -0.565 197.664
 Approx polarizability: 309.433 -14.630 232.075  43.561  -0.691 230.358

                      1                      2                      3
                      A                      A                      A
 Frequencies --     39.2136                43.2972                50.5292
 Red. masses --      4.3178                 3.9561                 5.4036
 Frc consts  --      0.0039                 0.0044                 0.0081
 IR Inten    --      3.2340                 2.1714                 7.6883

                      4                      5                      6
                      A                      A                      A
 Frequencies --    107.2844               159.6284               185.8139
 Red. masses --      4.7500                 5.6572                 4.3375
 Frc consts  --      0.0322                 0.0849                 0.0882
 IR Inten    --      1.9655                 2.2510                 0.1982

                      7                      8                      9
                      A                      A                      A
 Frequencies --    229.3660               277.6088               279.1598
 Red. masses --      3.3589                 3.9114                 3.7560
 Frc consts  --      0.1041                 0.1776                 0.1725
 IR Inten    --      1.9732                 2.1108                 2.2903

                     10                     11                     12
                      A                      A                      A
 Frequencies --    304.4021               311.4096               332.7182
 Red. masses --      1.3233                 1.2813                 1.1138
 Frc consts  --      0.0722                 0.0732                 0.0726
 IR Inten    --      2.4494                 0.5648               189.5865

                     13                     14                     15
                      A                      A                      A
 Frequencies --    337.4704               346.0419               373.7155
 Red. masses --      1.9800                 2.5632                 3.9148
 Frc consts  --      0.1329                 0.1808                 0.3221
 IR Inten    --      1.9621                 4.1305                 2.1626

                     16                     17                     18
                      A                      A                      A
 Frequencies --    423.2397               424.0282               432.5543
 Red. masses --      3.5888                 3.5510                 3.3634
 Frc consts  --      0.3788                 0.3762                 0.3708
 IR Inten    --      2.7124                 3.2117                 0.1648

                     19                     20                     21
                      A                      A                      A
 Frequencies --    454.2780               485.2718               492.0876
 Red. masses --      4.7038                 3.7767                 3.5783
 Frc consts  --      0.5719                 0.5240                 0.5105
 IR Inten    --     10.0209                 2.3193                 2.9751

                     22                     23                     24
                      A                      A                      A
 Frequencies --    542.0612               562.9188               575.9605
 Red. masses --      3.7734                 2.3812                 2.3190
 Frc consts  --      0.6533                 0.4446                 0.4532
 IR Inten    --      9.1270                46.8494                31.2216

                     25                     26                     27
                      A                      A                      A
 Frequencies --    648.6166               653.0748               656.1951
 Red. masses --      6.7598                 5.6110                 6.8636
 Frc consts  --      1.6756                 1.4100                 1.7413
 IR Inten    --      1.6134                 4.3677                 0.1829

                     28                     29                     30
                      A                      A                      A
 Frequencies --    736.6734               753.6041               767.7111
 Red. masses --      4.2417                 3.8855                 2.7407
 Frc consts  --      1.3562                 1.3001                 0.9517
 IR Inten    --      9.3934                 5.2640                17.7698

                     31                     32                     33
                      A                      A                      A
 Frequencies --    817.0705               823.9201               842.6538
 Red. masses --      1.2559                 1.3369                 2.2422
 Frc consts  --      0.4940                 0.5347                 0.9380
 IR Inten    --      2.2633                15.3016                71.0019

                     34                     35                     36
                      A                      A                      A
 Frequencies --    845.1491               847.5806               853.1910
 Red. masses --      1.9748                 4.2412                 4.0960
 Frc consts  --      0.8311                 1.7951                 1.7567
 IR Inten    --     38.2925                17.2329                20.4475

                     37                     38                     39
                      A                      A                      A
 Frequencies --    928.5420               944.2078               948.9642
 Red. masses --      1.9312                 1.4097                 1.3170
 Frc consts  --      0.9810                 0.7405                 0.6988
 IR Inten    --      5.2401                 0.3800                 0.2797

                     40                     41                     42
                      A                      A                      A
 Frequencies --    953.1123               955.2781               964.4840
 Red. masses --      1.3483                 1.4035                 1.3410
 Frc consts  --      0.7216                 0.7546                 0.7350
 IR Inten    --      3.7189                 2.1794                 0.3394

                     43                     44                     45
                      A                      A                      A
 Frequencies --   1003.2635              1028.6696              1033.4038
 Red. masses --      2.8571                 1.4779                 2.3143
 Frc consts  --      1.6944                 0.9214                 1.4562
 IR Inten    --      6.5774                 2.3468                 9.8512

                     46                     47                     48
                      A                      A                      A
 Frequencies --   1101.6883              1124.5302              1132.0422
 Red. masses --      1.8959                 1.6647                 2.2316
 Frc consts  --      1.3558                 1.2403                 1.6850
 IR Inten    --     19.2188                14.0104                 2.8326

                     49                     50                     51
                      A                      A                      A
 Frequencies --   1144.1863              1176.9083              1199.4901
 Red. masses --      1.6219                 1.8605                 1.2333
 Frc consts  --      1.2510                 1.5183                 1.0455
 IR Inten    --     15.8655                14.0148               143.4736

                     52                     53                     54
                      A                      A                      A
 Frequencies --   1211.5496              1218.1576              1258.6553
 Red. masses --      1.3374                 1.2231                 3.4184
 Frc consts  --      1.1567                 1.0694                 3.1907
 IR Inten    --    255.4215                37.8326                16.3685

                     55                     56                     57
                      A                      A                      A
 Frequencies --   1262.7018              1277.8495              1301.4440
 Red. masses --      3.7697                 2.9944                 3.3448
 Frc consts  --      3.5413                 2.8808                 3.3379
 IR Inten    --     58.2133                27.3314               164.5629

                     58                     59                     60
                      A                      A                      A
 Frequencies --   1339.3323              1347.6101              1388.4308
 Red. masses --      1.7398                 2.3956                 1.8085
 Frc consts  --      1.8388                 2.5633                 2.0541
 IR Inten    --     47.7299                25.4443                31.6739

                     61                     62                     63
                      A                      A                      A
 Frequencies --   1406.5225              1412.6432              1426.6024
 Red. masses --      3.1358                 1.2856                 1.2552
 Frc consts  --      3.6550                 1.5115                 1.5051
 IR Inten    --    288.1821                23.4337                 7.7842

                     64                     65                     66
                      A                      A                      A
 Frequencies --   1461.3179              1476.3514              1508.4230
 Red. masses --      3.3182                 2.6510                 1.0564
 Frc consts  --      4.1749                 3.4044                 1.4162
 IR Inten    --     28.0152                51.4375                 5.3304

                     67                     68                     69
                      A                      A                      A
 Frequencies --   1515.7064              1522.2722              1526.8336
 Red. masses --      1.0641                 1.0649                 1.0640
 Frc consts  --      1.4403                 1.4539                 1.4614
 IR Inten    --      6.9024                10.8822                17.2606

                     70                     71                     72
                      A                      A                      A
 Frequencies --   1553.4262              1561.5096              1567.1423
 Red. masses --      3.9304                 2.4712                 3.9058
 Frc consts  --      5.5882                 3.5502                 5.6516
 IR Inten    --    382.6832               137.1926               295.6125

                     73                     74                     75
                      A                      A                      A
 Frequencies --   1643.6126              1652.2035              1671.7064
 Red. masses --      5.5755                 5.6830                 5.7185
 Frc consts  --      8.8743                 9.1402                 9.4157
 IR Inten    --     29.5691               354.9015                61.8652

                     76                     77                     78
                      A                      A                      A
 Frequencies --   3058.3459              3064.0776              3125.3701
 Red. masses --      1.0353                 1.0359                 1.1011
 Frc consts  --      5.7056                 5.7301                 6.3370
 IR Inten    --     44.3448                55.7695                29.3593

                     79                     80                     81
                      A                      A                      A
 Frequencies --   3131.0609              3134.8962              3143.2946
 Red. masses --      1.1020                 1.1028                 1.1003
 Frc consts  --      6.3650                 6.3857                 6.4052
 IR Inten    --    112.0601                71.0228                46.6837

                     82                     83                     84
                      A                      A                      A
 Frequencies --   3147.7238              3156.1195              3172.5416
 Red. masses --      1.0876                 1.0874                 1.0923
 Frc consts  --      6.3489                 6.3820                 6.4773
 IR Inten    --     61.5088                57.8503               102.0002

                     85                     86                     87
                      A                      A                      A
 Frequencies --   3193.5875              3198.7786              3208.7541
 Red. masses --      1.0899                 1.0867                 1.0886
 Frc consts  --      6.5495                 6.5514                 6.6038
 IR Inten    --     52.0989                24.2251                17.7124

                     88                     89                     90
                      A                      A                      A
 Frequencies --   3213.7673              3229.4353              3722.8891
 Red. masses --      1.0938                 1.0917                 1.0662
 Frc consts  --      6.6560                 6.7081                 8.7070
 IR Inten    --     32.6012                25.4148               183.5391

 - Thermochemistry -
 -------------------
 Temperature   298.150 Kelvin.  Pressure   1.00000 Atm.
 Atom     1 has atomic number  6 and mass  12.00000

 Molecular mass:   227.10720 amu.
 Principal axes and moments of inertia in atomic units:
                           1         2         3
     Eigenvalues --  2101.988866890.209997757.35218
           X            0.99996   0.00836   0.00294
           Y           -0.00834   0.99993  -0.00798
           Z           -0.00301   0.00796   0.99996
 This molecule is an asymmetric top.
 Rotational symmetry number  1.
 Warning -- assumption of classical behavior for rotation
           may cause significant error
 Rotational temperatures (Kelvin)      0.04121     0.01257     0.01117
 Rotational constants (GHZ):           0.85859     0.26193     0.23265
 Zero-point vibrational energy     688253.0 (Joules/Mol)
                                  164.49642 (Kcal/Mol)
 Warning -- explicit consideration of  24 degrees of freedom as
           vibrations may cause significant error
 Vibrational temperatures:     56.42    62.29    72.70   154.36   229.67
          (Kelvin)            267.34   330.01   399.42   401.65   437.97
                              448.05   478.71   485.54   497.88   537.69
                              608.95   610.08   622.35   653.60   698.20
                              708.00   779.91   809.91   828.68   933.21
                              939.63   944.12  1059.91  1084.27  1104.57
                             1175.58  1185.44  1212.39  1215.98  1219.48
                             1227.55  1335.96  1358.50  1365.35  1371.32
                             1374.43  1387.68  1443.47  1480.03  1486.84
                             1585.08  1617.95  1628.76  1646.23  1693.31
                             1725.80  1743.15  1752.66  1810.92  1816.75
                             1838.54  1872.49  1927.00  1938.91  1997.64
                             2023.67  2032.48  2052.56  2102.51  2124.14
                             2170.28  2180.76  2190.21  2196.77  2235.03
                             2246.66  2254.77  2364.79  2377.15  2405.21
                             4400.28  4408.52  4496.71  4504.90  4510.42
                             4522.50  4528.87  4540.95  4564.58  4594.86
                             4602.33  4616.68  4623.89  4646.44  5356.41

 Zero-point correction=                           0.262142 (Hartree/Particle)
 Thermal correction to Energy=                    0.277026
 Thermal correction to Enthalpy=                  0.277971
 Thermal correction to Gibbs Free Energy=         0.220016
 Sum of electronic and zero-point Energies=           -730.934058
 Sum of electronic and thermal Energies=              -730.919173
 Sum of electronic and thermal Enthalpies=            -730.918229
 Sum of electronic and thermal Free Energies=         -730.976183

                     E (Thermal)             CV                S
                      KCal/Mol        Cal/Mol-Kelvin    Cal/Mol-Kelvin
 Total                  173.837             60.056            121.975
 Electronic               0.000              0.000              0.000
 Translational            0.889              2.981             42.163
 Rotational               0.889              2.981             33.085
 Vibrational            172.059             54.094             46.727
 Vibration     1          0.594              1.981              5.298
 Vibration     2          0.595              1.980              5.102
 Vibration     3          0.595              1.977              4.797
 Vibration     4          0.606              1.943              3.317
 Vibration     5          0.621              1.892              2.554
 Vibration     6          0.632              1.859              2.269
 Vibration     7          0.652              1.796              1.884
 Vibration     8          0.679              1.715              1.548
 Vibration     9          0.679              1.712              1.539
 Vibration    10          0.695              1.665              1.393
 Vibration    11          0.700              1.652              1.355
 Vibration    12          0.715              1.610              1.247
 Vibration    13          0.718              1.601              1.224
 Vibration    14          0.724              1.583              1.184
 Vibration    15          0.745              1.526              1.065
 Vibration    16          0.785              1.420              0.881
 Vibration    17          0.786              1.418              0.878
 Vibration    18          0.793              1.399              0.850
 Vibration    19          0.813              1.351              0.783
 Vibration    20          0.841              1.283              0.696
 Vibration    21          0.848              1.268              0.678
 Vibration    22          0.897              1.157              0.561
 Vibration    23          0.919              1.112              0.518
 Vibration    24          0.932              1.083              0.493

 Optimization completed.
    -- Stationary point found.
 Normal termination of Gaussian 16 at Sun Jul 11 16:21:16 2021.

 ----------------------------------------------------------------------
 #p b3lyp/6-31G(d) scrf=(iefpcm,read,solvent=water) geom=allcheck guess
 =read
 ----------------------------------------------------------------------

 Structure from the checkpoint file:  "SET_328_BBB212_conf1.geo_060_045.chk"
 -----------------------------------------
 SET_328_BBB212_conf1.geo_060_045 geometry
 -----------------------------------------
 Charge = -1 Multiplicity = 1

 SCF Done:  E(RB3LYP) =  -731.196199846     A.U. after    1 cycles
 Normal termination of Gaussian 16 at Sun Jul 11 16:21:25 2021.

 -----------------------------
 #p B3LYP/6-31G* geom=allcheck
 -----------------------------

 Structure from the checkpoint file:  "SET_328_BBB212_conf1.geo_060_045.chk"
 -----------------------------------------
 SET_328_BBB212_conf1.geo_060_045 geometry
 -----------------------------------------
 Charge = -1 Multiplicity = 1

 SCF Done:  E(RB3LYP) =  -731.090643415     A.U. after   19 cycles

 The electronic state is 1-A.
 Alpha  occ. eigenvalues --  -19.09108 -18.87200 -10.15014 -10.09087 -10.08619
 Alpha  occ. eigenvalues --  -10.08458 -10.08354 -10.08220 -10.08007 -10.06441
 Alpha  occ. eigenvalues --  -10.06048 -10.03749 -10.01880 -10.01706 -10.01220
 Alpha  occ. eigenvalues --   -9.99281  -9.99116  -0.97000  -0.75735  -0.75090
 Alpha  occ. eigenvalues --   -0.70055  -0.64790  -0.64536  -0.61911  -0.57745
 Alpha  occ. eigenvalues --   -0.55944  -0.54010  -0.52141  -0.50224  -0.45576
 Alpha  occ. eigenvalues --   -0.44607  -0.42328  -0.39585  -0.37664  -0.36264
 Alpha  occ. eigenvalues --   -0.34546  -0.33701  -0.32083  -0.31313  -0.30742
 Alpha  occ. eigenvalues --   -0.29688  -0.28291  -0.27772  -0.27354  -0.26521
 Alpha  occ. eigenvalues --   -0.25911  -0.24351  -0.23872  -0.23493  -0.22200
 Alpha  occ. eigenvalues --   -0.21385  -0.19444  -0.18837  -0.16230  -0.16112
 Alpha  occ. eigenvalues --   -0.14994  -0.12312  -0.10915  -0.07350  -0.01517
 Alpha  occ. eigenvalues --    0.00763
 Alpha virt. eigenvalues --    0.09926   0.11740   0.14652   0.17532   0.19315
 Alpha virt. eigenvalues --    0.20313   0.21568   0.23286   0.25199   0.25389
 Alpha virt. eigenvalues --    0.25548   0.26045   0.26963   0.27870   0.29979

 Mulliken charges:
               1
     1  C   -0.445999
     2  H    0.113597
     3  H    0.135139
     4  H    0.136085
     5  C   -0.044580
     6  C   -0.446121
     7  H    0.101466
     8  H    0.142078
     9  H    0.138377
    10  C    0.183191
    11  C   -0.177979
    12  C   -0.200242
    13  C    0.341950
    14  O   -0.660969
    15  H    0.394927
    16  C   -0.167341
    17  C   -0.204239
    18  H    0.111225
    19  H    0.105877
    20  H    0.094575
    21  H    0.142933
    22  C    0.135375
    23  C   -0.190946
    24  H    0.063726
    25  C   -0.225789
    26  H    0.053106
    27  C    0.421051
    28  O   -0.716506
    29  C   -0.233263
    30  H    0.049113
    31  C   -0.205183
    32  H    0.055367
 Sum of Mulliken charges =  -1.00000

 Dipole moment (field-independent basis, Debye):
    X=            -13.4350    Y=              4.0130    Z=              1.7376  Tot=             14.1288
 Quadrupole moment (field-independent basis, Debye-Ang):
   XX=           -179.1872   YY=           -112.4376   ZZ=           -101.6708
   XY=             26.9084   XZ=             -1.7054   YZ=             -5.7696

 Normal termination of Gaussian 16 at Sun Jul 11 16:22:16 2021.
 Gaussian 16:  ES64L-G16RevB.01 20-Dec-2017

 --------------------------------------------------------
 #p mp2/aug-cc-pVDZ scf=tight maxdisk=180GB geom=allcheck
 --------------------------------------------------------

 Structure from the checkpoint file:  "SET_328_BBB212_conf1.geo_060_045.chk"
 -----------------------------------------
 SET_328_BBB212_conf1.geo_060_045 geometry
 -----------------------------------------
 Charge = -1 Multiplicity = 1

                         Standard orientation:
 ---------------------------------------------------------------------
 Center     Atomic      Atomic             Coordinates (Angstroms)
 Number     Number       Type             X           Y           Z
 ---------------------------------------------------------------------
      1          6           0        0.011343    2.360622    1.258082
      2          1           0       -0.885680    2.986056    1.228358
      3          1           0        0.883536    3.020810    1.292896
      4          1           0       -0.011098    1.780027    2.185413
      5          6           0        0.055738    1.453136    0.009873
      6          6           0        0.105457    2.376895   -1.224731
      7          1           0       -0.742806    3.069144   -1.246379
      8          1           0        0.099974    1.804486   -2.155225
      9          1           0        1.024120    2.969773   -1.199205
     10          6           0       -1.216095    0.585044    0.008493
     11          6           0       -1.401289   -0.383193    1.008648
     12          6           0       -2.543814   -1.176151    1.067893
     13          6           0       -3.549229   -1.023975    0.104485
     14          8           0       -4.692951   -1.771914    0.095032
     15          1           0       -4.675918   -2.400007    0.838656
     16          6           0       -3.387671   -0.070416   -0.902589
     17          6           0       -2.237078    0.719664   -0.940853
     18          1           0       -2.140961    1.449993   -1.735848
     19          1           0       -4.165131    0.044549   -1.651078
     20          1           0       -2.652842   -1.914302    1.856065
     21          1           0       -0.626735   -0.529554    1.755224
     22          6           0        1.301278    0.552929    0.000373
     23          6           0        1.472666   -0.403555   -1.019378
     24          1           0        0.695102   -0.511000   -1.775132
     25          6           0        2.591095   -1.222429   -1.092513
     26          1           0        2.678499   -1.948648   -1.898062
     27          6           0        3.661213   -1.158613   -0.134244
     28          8           0        4.699536   -1.919824   -0.194640
     29          6           0        3.464221   -0.176522    0.891520
     30          1           0        4.238123   -0.077555    1.650770
     31          6           0        2.333853    0.638332    0.947275
     32          1           0        2.259004    1.359527    1.756412
 ---------------------------------------------------------------------

 SCF Done:  E(RHF) =  -726.570241603     A.U. after   17 cycles
