 Gaussian 16, Revision B.01,

 -----------------------------------------------------------
 #p b3lyp/6-31G(d) opt freq scrf=(iefpcm,read,solvent=water)
 -----------------------------------------------------------

 ----------------------------------------
 SET_328_BBB65_conf1.geo_060_330 geometry
 ----------------------------------------
 Symbolic Z-matrix:
 Charge =  1 Multiplicity = 1

 SCF Done:  E(RB3LYP) =  -718.038638988     A.U. after   12 cycles
 SCF Done:  E(RB3LYP) =  -718.071068246     A.U. after   11 cycles
 SCF Done:  E(RB3LYP) =  -718.086792761     A.U. after   11 cycles
 SCF Done:  E(RB3LYP) =  -718.089464281     A.U. after   10 cycles
 SCF Done:  E(RB3LYP) =  -718.091012505     A.U. after   10 cycles
 SCF Done:  E(RB3LYP) =  -718.091078461     A.U. after   10 cycles
 SCF Done:  E(RB3LYP) =  -718.091204381     A.U. after    9 cycles
 SCF Done:  E(RB3LYP) =  -718.091116011     A.U. after    9 cycles
 SCF Done:  E(RB3LYP) =  -718.091218199     A.U. after    9 cycles
 SCF Done:  E(RB3LYP) =  -718.091222604     A.U. after    8 cycles
 SCF Done:  E(RB3LYP) =  -718.091225481     A.U. after    8 cycles
 SCF Done:  E(RB3LYP) =  -718.091227895     A.U. after    7 cycles
 SCF Done:  E(RB3LYP) =  -718.091225811     A.U. after    7 cycles
 SCF Done:  E(RB3LYP) =  -718.091225530     A.U. after    7 cycles
 SCF Done:  E(RB3LYP) =  -718.091225819     A.U. after    7 cycles
 SCF Done:  E(RB3LYP) =  -718.091225830     A.U. after    6 cycles
 Optimization completed.
    -- Stationary point found.
 Normal termination of Gaussian 16 at Sun Jul 11 16:50:13 2021.

 --------------------------------------------------------------------
 #P Geom=AllCheck Guess=TCheck SCRF=Check GenChk RB3LYP/6-31G(d) Freq
 --------------------------------------------------------------------

 Structure from the checkpoint file:  "SET_328_BBB65_conf1.geo_060_330.chk"
 ----------------------------------------
 SET_328_BBB65_conf1.geo_060_330 geometry
 ----------------------------------------
 Charge =  1 Multiplicity = 1

 SCF Done:  E(RB3LYP) =  -718.091225830     A.U. after    1 cycles

  Exact polarizability: 270.062  11.822 195.648  -0.908   3.834 240.588
 Approx polarizability: 283.676  12.513 200.563  -1.070   4.923 270.386

                      1                      2                      3
                      A                      A                      A
 Frequencies --     33.6413                62.9663                88.1525
 Red. masses --      3.4529                 3.7628                 2.9643
 Frc consts  --      0.0023                 0.0088                 0.0136
 IR Inten    --      0.0553                 0.2318                 0.2668

                      4                      5                      6
                      A                      A                      A
 Frequencies --     91.8463               147.4891               169.0472
 Red. masses --      3.1942                 2.7853                 3.2591
 Frc consts  --      0.0159                 0.0357                 0.0549
 IR Inten    --      0.8597                 3.7829                 1.1543

                      7                      8                      9
                      A                      A                      A
 Frequencies --    186.3307               225.4287               246.7346
 Red. masses --      3.2103                 1.9222                 3.5286
 Frc consts  --      0.0657                 0.0576                 0.1266
 IR Inten    --      0.0480                 0.0092                 0.6169

                     10                     11                     12
                      A                      A                      A
 Frequencies --    286.7486               306.3431               314.4076
 Red. masses --      2.9220                 4.4954                 3.4572
 Frc consts  --      0.1416                 0.2486                 0.2014
 IR Inten    --      0.1174                 0.5839                 4.5041

                     13                     14                     15
                      A                      A                      A
 Frequencies --    334.7813               347.6246               411.2181
 Red. masses --      2.1638                 1.8016                 1.9374
 Frc consts  --      0.1429                 0.1283                 0.1930
 IR Inten    --      0.1967                 1.5598                 0.3470

                     16                     17                     18
                      A                      A                      A
 Frequencies --    417.1889               418.3897               434.6196
 Red. masses --      2.9548                 3.0090                 3.0090
 Frc consts  --      0.3030                 0.3103                 0.3349
 IR Inten    --      0.5196                 3.4412                 0.0798

                     19                     20                     21
                      A                      A                      A
 Frequencies --    440.4072               469.3907               508.9888
 Red. masses --      2.0711                 2.9418                 3.1643
 Frc consts  --      0.2367                 0.3819                 0.4830
 IR Inten    --      0.0593                 1.6365                 0.3263

                     22                     23                     24
                      A                      A                      A
 Frequencies --    512.2207               562.6711               577.7216
 Red. masses --      2.2008                 2.0490                 3.2971
 Frc consts  --      0.3402                 0.3822                 0.6484
 IR Inten    --      1.4128                 6.2894                11.0127

                     25                     26                     27
                      A                      A                      A
 Frequencies --    633.4387               651.3228               713.2739
 Red. masses --      6.3188                 2.8408                 2.4652
 Frc consts  --      1.4938                 0.7100                 0.7390
 IR Inten    --      0.0111                 6.7467                22.4314

                     28                     29                     30
                      A                      A                      A
 Frequencies --    725.5441               776.6428               801.6394
 Red. masses --      1.9846                 2.1603                 2.0597
 Frc consts  --      0.6155                 0.7677                 0.7798
 IR Inten    --     32.0781                39.8104                 9.1261

                     31                     32                     33
                      A                      A                      A
 Frequencies --    810.9883               816.3210               836.4959
 Red. masses --      1.4491                 1.4933                 2.9614
 Frc consts  --      0.5615                 0.5863                 1.2209
 IR Inten    --      0.5341                 0.3477                15.6716

                     34                     35                     36
                      A                      A                      A
 Frequencies --    853.6736               868.4345               878.3330
 Red. masses --      2.9416                 1.2517                 1.9323
 Frc consts  --      1.2631                 0.5562                 0.8783
 IR Inten    --      6.6643                 0.3841                29.4176

                     37                     38                     39
                      A                      A                      A
 Frequencies --    888.2552               907.9983               917.8264
 Red. masses --      2.2025                 1.9601                 2.2528
 Frc consts  --      1.0238                 0.9522                 1.1182
 IR Inten    --     15.1832                36.4533                 4.6099

                     40                     41                     42
                      A                      A                      A
 Frequencies --    930.9741               938.1250               954.7368
 Red. masses --      2.3456                 1.9701                 1.4225
 Frc consts  --      1.1978                 1.0215                 0.7640
 IR Inten    --      0.6312                14.2084                 0.0963

                     43                     44                     45
                      A                      A                      A
 Frequencies --    958.9497               966.7015               989.6197
 Red. masses --      1.5050                 1.3639                 1.3539
 Frc consts  --      0.8154                 0.7510                 0.7812
 IR Inten    --      1.2620                19.4036                 0.1481

                     46                     47                     48
                      A                      A                      A
 Frequencies --   1014.7650              1016.9181              1035.4579
 Red. masses --      1.2649                 5.7738                 2.4773
 Frc consts  --      0.7674                 3.5179                 1.5650
 IR Inten    --      0.2067                 4.7094                16.6325

                     49                     50                     51
                      A                      A                      A
 Frequencies --   1037.5119              1045.8696              1058.6123
 Red. masses --      2.2403                 2.2325                 2.0409
 Frc consts  --      1.4209                 1.4388                 1.3475
 IR Inten    --      5.7580                 6.2318                 8.4152

                     52                     53                     54
                      A                      A                      A
 Frequencies --   1063.0083              1071.3473              1085.6189
 Red. masses --      2.3398                 2.2471                 1.5354
 Frc consts  --      1.5577                 1.5196                 1.0662
 IR Inten    --      9.9158                 0.3111                 0.0675

                     55                     56                     57
                      A                      A                      A
 Frequencies --   1096.8730              1105.1955              1123.4301
 Red. masses --      1.8344                 1.8373                 1.5381
 Frc consts  --      1.3003                 1.3222                 1.1438
 IR Inten    --      4.6833                 0.8389                11.0644

                     58                     59                     60
                      A                      A                      A
 Frequencies --   1159.2429              1163.3438              1174.9267
 Red. masses --      1.1420                 2.0913                 1.4392
 Frc consts  --      0.9042                 1.6675                 1.1706
 IR Inten    --     11.7014                18.4189                 1.5283

                     61                     62                     63
                      A                      A                      A
 Frequencies --   1184.2516              1192.5072              1222.3027
 Red. masses --      2.3746                 1.0885                 1.4460
 Frc consts  --      1.9621                 0.9120                 1.2729
 IR Inten    --      5.3444                 0.0032                 4.8507

                     64                     65                     66
                      A                      A                      A
 Frequencies --   1222.8259              1236.5568              1252.2815
 Red. masses --      1.6943                 1.5925                 1.9191
 Frc consts  --      1.4927                 1.4347                 1.7731
 IR Inten    --     11.0730                27.8976                 4.8432

                     67                     68                     69
                      A                      A                      A
 Frequencies --   1283.3144              1306.2799              1307.7748
 Red. masses --      1.3148                 1.2169                 1.2451
 Frc consts  --      1.2758                 1.2234                 1.2547
 IR Inten    --     19.3603                 1.7006                 3.6061

                     70                     71                     72
                      A                      A                      A
 Frequencies --   1312.7647              1319.6652              1343.9352
 Red. masses --      1.2511                 1.2340                 1.3245
 Frc consts  --      1.2703                 1.2662                 1.4095
 IR Inten    --      2.2943                 5.4234                10.5451

                     73                     74                     75
                      A                      A                      A
 Frequencies --   1347.0518              1358.5619              1371.0015
 Red. masses --      3.3796                 1.4143                 1.3160
 Frc consts  --      3.6131                 1.5380                 1.4574
 IR Inten    --      0.5875                 0.9640                 0.0854

                     76                     77                     78
                      A                      A                      A
 Frequencies --   1379.1195              1385.0786              1397.0216
 Red. masses --      1.4438                 1.3804                 1.4593
 Frc consts  --      1.6179                 1.5602                 1.6781
 IR Inten    --      0.6785                 4.3351                 0.4635

                     79                     80                     81
                      A                      A                      A
 Frequencies --   1399.1691              1403.7549              1413.2446
 Red. masses --      1.4786                 1.4268                 1.4298
 Frc consts  --      1.7054                 1.6566                 1.6825
 IR Inten    --      7.1800                 0.6501                 3.5341

                     82                     83                     84
                      A                      A                      A
 Frequencies --   1413.5736              1418.4682              1423.4634
 Red. masses --      1.4363                 1.4007                 1.3166
 Frc consts  --      1.6910                 1.6605                 1.5718
 IR Inten    --      6.5761                 7.0706                 0.8027

                     85                     86                     87
                      A                      A                      A
 Frequencies --   1476.1771              1492.9749              1501.8564
 Red. masses --      1.1240                 2.2229                 1.1010
 Frc consts  --      1.4432                 2.9193                 1.4632
 IR Inten    --     47.1221                17.7333                 1.6310

                     88                     89                     90
                      A                      A                      A
 Frequencies --   1506.5819              1510.9581              1512.1390
 Red. masses --      1.0952                 1.1034                 1.0826
 Frc consts  --      1.4646                 1.4843                 1.4585
 IR Inten    --     20.6331                 6.4779                13.0834

                     91                     92                     93
                      A                      A                      A
 Frequencies --   1516.1701              1520.2583              1524.3580
 Red. masses --      1.0991                 1.0970                 1.0989
 Frc consts  --      1.4886                 1.4939                 1.5045
 IR Inten    --      5.0130                13.7152                46.8599

                     94                     95                     96
                      A                      A                      A
 Frequencies --   1528.8202              1536.6402              1551.6145
 Red. masses --      1.1078                 1.0941                 2.0153
 Frc consts  --      1.5256                 1.5221                 2.8586
 IR Inten    --     21.8295                14.2577                 6.5279

                     97                     98                     99
                      A                      A                      A
 Frequencies --   1622.2496              1640.9296              1641.7095
 Red. masses --      1.0706                 1.1003                 4.8324
 Frc consts  --      1.6600                 1.7456                 7.6738
 IR Inten    --      6.6557                46.0877                 3.1276

                    100                    101                    102
                      A                      A                      A
 Frequencies --   1662.7343              3043.6567              3046.2544
 Red. masses --      5.3483                 1.0697                 1.0658
 Frc consts  --      8.7120                 5.8384                 5.8274
 IR Inten    --      0.3863                25.7321                51.9059

                    103                    104                    105
                      A                      A                      A
 Frequencies --   3056.7977              3057.7167              3063.6539
 Red. masses --      1.0683                 1.0636                 1.0631
 Frc consts  --      5.8811                 5.8589                 5.8789
 IR Inten    --     26.3639                63.1049                31.6915

                    106                    107                    108
                      A                      A                      A
 Frequencies --   3067.4971              3075.2195              3083.3240
 Red. masses --      1.0640                 1.0716                 1.0745
 Frc consts  --      5.8986                 5.9711                 6.0185
 IR Inten    --     49.9869                 2.8841                35.5081

                    109                    110                    111
                      A                      A                      A
 Frequencies --   3093.7828              3097.2462              3101.8519
 Red. masses --      1.0956                 1.0919                 1.1004
 Frc consts  --      6.1786                 6.1715                 6.2379
 IR Inten    --     57.8244                61.8708               140.9080

                    112                    113                    114
                      A                      A                      A
 Frequencies --   3106.8772              3113.4832              3117.4814
 Red. masses --      1.0986                 1.0970                 1.1019
 Frc consts  --      6.2478                 6.2655                 6.3095
 IR Inten    --     32.9222                49.6986                47.0762

                    115                    116                    117
                      A                      A                      A
 Frequencies --   3132.1117              3136.5765              3144.0046
 Red. masses --      1.0641                 1.0849                 1.0733
 Frc consts  --      6.1506                 6.2884                 6.2510
 IR Inten    --     12.1651                21.7809                44.9614

                    118                    119                    120
                      A                      A                      A
 Frequencies --   3154.7786              3198.9543              3206.9245
 Red. masses --      1.0925                 1.1054                 1.0860
 Frc consts  --      6.4063                 6.6647                 6.5805
 IR Inten    --     44.5548                19.0617                 0.9237

                    121                    122                    123
                      A                      A                      A
 Frequencies --   3209.8313              3214.0902              3226.8672
 Red. masses --      1.1049                 1.0897                 1.0942
 Frc consts  --      6.7069                 6.6325                 6.7131
 IR Inten    --     17.4866                15.8478                44.3549

                    124                    125                    126
                      A                      A                      A
 Frequencies --   3238.9270              3241.3054              3419.1156
 Red. masses --      1.0913                 1.0933                 1.0746
 Frc consts  --      6.7449                 6.7672                 7.4015
 IR Inten    --     44.9965                 2.6086               112.0810

 - Thermochemistry -
 -------------------
 Temperature   298.150 Kelvin.  Pressure   1.00000 Atm.
 Atom     1 has atomic number  6 and mass  12.00000

 Molecular mass:   244.20652 amu.
 Principal axes and moments of inertia in atomic units:
                           1         2         3
     Eigenvalues --  3864.979354661.531086466.97085
           X            0.99970   0.02437  -0.00025
           Y           -0.02437   0.99970   0.00069
           Z            0.00026  -0.00068   1.00000
 This molecule is an asymmetric top.
 Rotational symmetry number  1.
 Warning -- assumption of classical behavior for rotation
           may cause significant error
 Rotational temperatures (Kelvin)      0.02241     0.01858     0.01339
 Rotational constants (GHZ):           0.46695     0.38716     0.27907
 Zero-point vibrational energy    1076365.4 (Joules/Mol)
                                  257.25751 (Kcal/Mol)
 Warning -- explicit consideration of  24 degrees of freedom as
           vibrations may cause significant error
 Vibrational temperatures:     48.40    90.59   126.83   132.15   212.20
          (Kelvin)            243.22   268.09   324.34   355.00   412.57
                              440.76   452.36   481.68   500.15   591.65
                              600.24   601.97   625.32   633.65   675.35
                              732.32   736.97   809.56   831.21   911.38
                              937.11  1026.24  1043.90  1117.42  1153.38
                             1166.83  1174.50  1203.53  1228.25  1249.48
                             1263.73  1278.00  1306.41  1320.55  1339.46
                             1349.75  1373.65  1379.71  1390.87  1423.84
                             1460.02  1463.12  1489.79  1492.75  1504.77
                             1523.11  1529.43  1541.43  1561.96  1578.16
                             1590.13  1616.37  1667.89  1673.79  1690.46
                             1703.87  1715.75  1758.62  1759.37  1779.13
                             1801.75  1846.40  1879.45  1881.60  1888.78
                             1898.70  1933.62  1938.11  1954.67  1972.57
                             1984.25  1992.82  2010.00  2013.09  2019.69
                             2033.34  2033.82  2040.86  2048.05  2123.89
                             2148.06  2160.84  2167.64  2173.93  2175.63
                             2181.43  2187.31  2193.21  2199.63  2210.88
                             2232.43  2334.06  2360.93  2362.05  2392.30
                             4379.14  4382.88  4398.05  4399.37  4407.91
                             4413.44  4424.55  4436.22  4451.26  4456.25
                             4462.87  4470.10  4479.61  4485.36  4506.41
                             4512.83  4523.52  4539.02  4602.58  4614.05
                             4618.23  4624.36  4642.74  4660.09  4663.52
                             4919.34

 Zero-point correction=                           0.409966 (Hartree/Particle)
 Thermal correction to Energy=                    0.425496
 Thermal correction to Enthalpy=                  0.426440
 Thermal correction to Gibbs Free Energy=         0.367719
 Sum of electronic and zero-point Energies=           -717.681260
 Sum of electronic and thermal Energies=              -717.665730
 Sum of electronic and thermal Enthalpies=            -717.664786
 Sum of electronic and thermal Free Energies=         -717.723507

                     E (Thermal)             CV                S
                      KCal/Mol        Cal/Mol-Kelvin    Cal/Mol-Kelvin
 Total                  267.003             65.456            123.588
 Electronic               0.000              0.000              0.000
 Translational            0.889              2.981             42.379
 Rotational               0.889              2.981             33.121
 Vibrational            265.225             59.494             48.088
 Vibration     1          0.594              1.983              5.602
 Vibration     2          0.597              1.972              4.362
 Vibration     3          0.601              1.958              3.701
 Vibration     4          0.602              1.955              3.620
 Vibration     5          0.617              1.905              2.704
 Vibration     6          0.625              1.881              2.446
 Vibration     7          0.632              1.859              2.264
 Vibration     8          0.650              1.802              1.915
 Vibration     9          0.661              1.768              1.754
 Vibration    10          0.684              1.698              1.493
 Vibration    11          0.697              1.662              1.382
 Vibration    12          0.702              1.646              1.339
 Vibration    13          0.716              1.606              1.237
 Vibration    14          0.725              1.580              1.177
 Vibration    15          0.775              1.446              0.922
 Vibration    16          0.780              1.433              0.902
 Vibration    17          0.781              1.430              0.897
 Vibration    18          0.795              1.395              0.844
 Vibration    19          0.800              1.382              0.825
 Vibration    20          0.826              1.318              0.739
 Vibration    21          0.864              1.230              0.636
 Vibration    22          0.867              1.223              0.628
 Vibration    23          0.918              1.112              0.519
 Vibration    24          0.934              1.079              0.490

                           ! Non-Optimized Parameters !
 Normal termination of Gaussian 16 at Sun Jul 11 17:10:07 2021.

 ----------------------------------------------------------------------
 #p b3lyp/6-31G(d) scrf=(iefpcm,read,solvent=water) geom=allcheck guess
 =read
 ----------------------------------------------------------------------

 Structure from the checkpoint file:  "SET_328_BBB65_conf1.geo_060_330.chk"
 ----------------------------------------
 SET_328_BBB65_conf1.geo_060_330 geometry
 ----------------------------------------
 Charge =  1 Multiplicity = 1

 SCF Done:  E(RB3LYP) =  -718.091225830     A.U. after    1 cycles
 Normal termination of Gaussian 16 at Sun Jul 11 17:10:22 2021.

 -----------------------------
 #p B3LYP/6-31G* geom=allcheck
 -----------------------------

 Structure from the checkpoint file:  "SET_328_BBB65_conf1.geo_060_330.chk"
 ----------------------------------------
 SET_328_BBB65_conf1.geo_060_330 geometry
 ----------------------------------------
 Charge =  1 Multiplicity = 1

 SCF Done:  E(RB3LYP) =  -718.016636524     A.U. after   14 cycles

 The electronic state is 1-A.
 Alpha  occ. eigenvalues --  -14.59348 -10.39631 -10.37851 -10.37826 -10.32940
 Alpha  occ. eigenvalues --  -10.32937 -10.32727 -10.32391 -10.32343 -10.31679
 Alpha  occ. eigenvalues --  -10.31297 -10.31263 -10.31111 -10.31089 -10.30613
 Alpha  occ. eigenvalues --  -10.30582 -10.30483 -10.29917  -1.14536  -0.99027
 Alpha  occ. eigenvalues --   -0.96381  -0.94069  -0.92226  -0.89841  -0.88119
 Alpha  occ. eigenvalues --   -0.86272  -0.84835  -0.81518  -0.78839  -0.76827
 Alpha  occ. eigenvalues --   -0.75179  -0.73334  -0.71477  -0.70741  -0.69758
 Alpha  occ. eigenvalues --   -0.66318  -0.64375  -0.63516  -0.62854  -0.60059
 Alpha  occ. eigenvalues --   -0.59302  -0.58612  -0.58316  -0.57381  -0.56802
 Alpha  occ. eigenvalues --   -0.56470  -0.55363  -0.54470  -0.54221  -0.53574
 Alpha  occ. eigenvalues --   -0.52406  -0.51458  -0.51105  -0.50903  -0.50214
 Alpha  occ. eigenvalues --   -0.48493  -0.47782  -0.47113  -0.46776  -0.46689
 Alpha  occ. eigenvalues --   -0.46531  -0.46207  -0.44943  -0.43878  -0.43015
 Alpha  occ. eigenvalues --   -0.37101  -0.36931
 Alpha virt. eigenvalues --   -0.13610  -0.12151  -0.09336  -0.05557  -0.04928
 Alpha virt. eigenvalues --   -0.03506  -0.03130  -0.01804  -0.01383  -0.01093
 Alpha virt. eigenvalues --   -0.00410   0.00537   0.01095   0.01481   0.02251

 Mulliken charges:
               1
     1  C   -0.270996
     2  C   -0.298662
     3  C   -0.175375
     4  H    0.199616
     5  H    0.213643
     6  H    0.162973
     7  H    0.195102
     8  H    0.165015
     9  H    0.186116
    10  C   -0.299132
    11  H    0.162570
    12  H    0.195140
    13  C   -0.173602
    14  H    0.199960
    15  H    0.214325
    16  N   -0.520140
    17  C    0.106221
    18  C   -0.318742
    19  C   -0.288566
    20  C   -0.262969
    21  C   -0.288748
    22  C   -0.314528
    23  H    0.164498
    24  H    0.191125
    25  H    0.125461
    26  H    0.182176
    27  H    0.169953
    28  H    0.160793
    29  H    0.125920
    30  H    0.182148
    31  H    0.165080
    32  H    0.191340
    33  C    0.130071
    34  C   -0.182617
    35  H    0.145491
    36  C   -0.132192
    37  H    0.166577
    38  C   -0.116585
    39  H    0.170827
    40  C   -0.132516
    41  H    0.166326
    42  C   -0.185991
    43  H    0.144191
    44  H    0.378705
 Sum of Mulliken charges =   1.00000

 Dipole moment (field-independent basis, Debye):
    X=              2.1819    Y=             -2.1040    Z=              0.0492  Tot=              3.0315
 Quadrupole moment (field-independent basis, Debye-Ang):
   XX=            -84.6086   YY=            -89.6765   ZZ=            -94.6401
   XY=             -0.7730   XZ=             -0.0945   YZ=              0.3456

 Normal termination of Gaussian 16 at Sun Jul 11 17:11:35 2021.
 Gaussian 16:  ES64L-G16RevB.01 20-Dec-2017

 --------------------------------------------------------
 #p mp2/aug-cc-pVDZ scf=tight maxdisk=180GB geom=allcheck
 --------------------------------------------------------

 Structure from the checkpoint file:  "SET_328_BBB65_conf1.geo_060_330.chk"
 ----------------------------------------
 SET_328_BBB65_conf1.geo_060_330 geometry
 ----------------------------------------
 Charge =  1 Multiplicity = 1

                         Standard orientation:
 ---------------------------------------------------------------------
 Center     Atomic      Atomic             Coordinates (Angstroms)
 Number     Number       Type             X           Y           Z
 ---------------------------------------------------------------------
      1          6           0        1.251981   -3.546158    0.036440
      2          6           0        1.494381   -2.706039   -1.217822
      3          6           0        0.651810   -1.433061   -1.226844
      4          1           0        0.896239   -0.824422   -2.093107
      5          1           0       -0.416575   -1.649622   -1.237656
      6          1           0        2.554929   -2.439621   -1.292974
      7          1           0        1.243804   -3.265008   -2.124105
      8          1           0        0.227286   -3.936729    0.029841
      9          1           0        1.924808   -4.408122    0.051840
     10          6           0        1.466018   -2.683669    1.279976
     11          1           0        2.523726   -2.409869    1.372019
     12          1           0        1.200747   -3.229741    2.191022
     13          6           0        0.615994   -1.416855    1.247794
     14          1           0        0.825544   -0.794517    2.115132
     15          1           0       -0.449993   -1.646006    1.225024
     16          7           0        0.897365   -0.592672    0.008224
     17          6           0        0.165251    0.806180   -0.009092
     18          6           0        0.600349    1.623698    1.233882
     19          6           0        2.063632    2.093327    1.249064
     20          6           0        2.422557    2.876159   -0.018106
     21          6           0        2.074392    2.069059   -1.274511
     22          6           0        0.606091    1.604983   -1.265109
     23          1           0        0.380277    1.066437   -2.186382
     24          1           0       -0.040806    2.488952   -1.272893
     25          1           0        2.756411    1.215122   -1.366898
     26          1           0        2.231179    2.674457   -2.174321
     27          1           0        3.485638    3.138204   -0.015548
     28          1           0        1.862125    3.820152   -0.028915
     29          1           0        2.749801    1.245747    1.370065
     30          1           0        2.204899    2.717779    2.137040
     31          1           0        0.372525    1.096321    2.158692
     32          1           0       -0.047892    2.506104    1.230561
     33          6           0       -1.348162    0.537053   -0.009239
     34          6           0       -2.077531    0.485885    1.189861
     35          1           0       -1.582675    0.643853    2.140156
     36          6           0       -3.450462    0.239660    1.191014
     37          1           0       -3.984919    0.207446    2.134208
     38          6           0       -4.131189    0.039978   -0.008796
     39          1           0       -5.199054   -0.150299   -0.008422
     40          6           0       -3.424600    0.093499   -1.209612
     41          1           0       -3.938667   -0.052926   -2.153941
     42          6           0       -2.052090    0.340223   -1.208300
     43          1           0       -1.540810    0.386549   -2.161571
     44          1           0        1.909358   -0.395062    0.019957
 ---------------------------------------------------------------------

 SCF Done:  E(RHF) =  -713.236654421     A.U. after   15 cycles
