 Gaussian 16, Revision B.01,

 -----------------------------------------------------------
 #p b3lyp/6-31G(d) opt freq scrf=(iefpcm,read,solvent=water)
 -----------------------------------------------------------

 ---------------------------------------
 SET_328_BBB2_conf1.geo_240_195 geometry
 ---------------------------------------
 Symbolic Z-matrix:
 Charge =  1 Multiplicity = 1

 SCF Done:  E(RB3LYP) =  -1633.62385843     A.U. after   13 cycles
 SCF Done:  E(RB3LYP) =  -1633.65418816     A.U. after   11 cycles
 SCF Done:  E(RB3LYP) =  -1633.67072256     A.U. after   11 cycles
 SCF Done:  E(RB3LYP) =  -1633.67309622     A.U. after   10 cycles
 SCF Done:  E(RB3LYP) =  -1633.67342688     A.U. after   10 cycles
 SCF Done:  E(RB3LYP) =  -1633.67357223     A.U. after    9 cycles
 SCF Done:  E(RB3LYP) =  -1633.67357232     A.U. after    8 cycles
 SCF Done:  E(RB3LYP) =  -1633.67357208     A.U. after    8 cycles
 SCF Done:  E(RB3LYP) =  -1633.67354948     A.U. after    9 cycles
 SCF Done:  E(RB3LYP) =  -1633.67357100     A.U. after    9 cycles
 SCF Done:  E(RB3LYP) =  -1633.67357507     A.U. after    9 cycles
 SCF Done:  E(RB3LYP) =  -1633.67356207     A.U. after    9 cycles
 SCF Done:  E(RB3LYP) =  -1633.67356233     A.U. after    6 cycles
 SCF Done:  E(RB3LYP) =  -1633.67357491     A.U. after    9 cycles
 SCF Done:  E(RB3LYP) =  -1633.67356325     A.U. after    9 cycles
 SCF Done:  E(RB3LYP) =  -1633.67356270     A.U. after    6 cycles
 Optimization completed on the basis of negligible forces.
    -- Stationary point found.
 Normal termination of Gaussian 16 at Sun Jul 11 16:24:45 2021.

 --------------------------------------------------------------------
 #P Geom=AllCheck Guess=TCheck SCRF=Check GenChk RB3LYP/6-31G(d) Freq
 --------------------------------------------------------------------

 Structure from the checkpoint file:  "SET_328_BBB2_conf1.geo_240_195.chk"
 ---------------------------------------
 SET_328_BBB2_conf1.geo_240_195 geometry
 ---------------------------------------
 Charge =  1 Multiplicity = 1

 SCF Done:  E(RB3LYP) =  -1633.67356270     A.U. after    1 cycles

  Exact polarizability: 338.587   3.943 237.924 -23.420  20.625 224.063
 Approx polarizability: 358.611   5.033 263.646 -27.385  27.876 264.530

                      1                      2                      3
                      A                      A                      A
 Frequencies --      7.7792                36.7695                44.0005
 Red. masses --      7.0849                 4.8747                 6.5391
 Frc consts  --      0.0003                 0.0039                 0.0075
 IR Inten    --      1.1256                 2.4724                 0.3521

                      4                      5                      6
                      A                      A                      A
 Frequencies --     78.6098               103.8981               117.7297
 Red. masses --      3.9723                 2.2801                 4.1241
 Frc consts  --      0.0145                 0.0145                 0.0337
 IR Inten    --      2.8674                 7.3922                 1.6880

                      7                      8                      9
                      A                      A                      A
 Frequencies --    127.8001               176.5795               194.9979
 Red. masses --      4.9189                 4.3545                 2.7290
 Frc consts  --      0.0473                 0.0800                 0.0611
 IR Inten    --      1.4799                 2.6416                 2.3673

                     10                     11                     12
                      A                      A                      A
 Frequencies --    197.7254               205.6451               216.3187
 Red. masses --      3.8490                 2.9199                 3.2917
 Frc consts  --      0.0887                 0.0728                 0.0908
 IR Inten    --      0.1194                 0.0482                 3.5473

                     13                     14                     15
                      A                      A                      A
 Frequencies --    248.5790               273.4659               304.9656
 Red. masses --      2.4553                 2.8698                 4.3603
 Frc consts  --      0.0894                 0.1264                 0.2389
 IR Inten    --      0.1202                11.0067                 5.5409

                     16                     17                     18
                      A                      A                      A
 Frequencies --    349.5407               362.7423               392.1866
 Red. masses --      5.0732                 4.7257                 3.7562
 Frc consts  --      0.3652                 0.3664                 0.3404
 IR Inten    --      3.6479                 3.2894                 4.5294

                     19                     20                     21
                      A                      A                      A
 Frequencies --    420.5646               445.2175               457.4386
 Red. masses --      5.0759                 3.6263                 4.9405
 Frc consts  --      0.5290                 0.4235                 0.6091
 IR Inten    --      0.8303                 2.4900                 8.9494

                     22                     23                     24
                      A                      A                      A
 Frequencies --    462.8250               476.3945               477.2802
 Red. masses --      4.8350                 3.6355                 3.0670
 Frc consts  --      0.6102                 0.4861                 0.4116
 IR Inten    --      6.3063                 2.4470                 3.0251

                     25                     26                     27
                      A                      A                      A
 Frequencies --    525.0531               550.7940               595.2942
 Red. masses --      4.7667                 3.5899                 4.0335
 Frc consts  --      0.7742                 0.6417                 0.8422
 IR Inten    --     19.3986                18.7102                 8.9021

                     28                     29                     30
                      A                      A                      A
 Frequencies --    626.8438               630.4313               684.1338
 Red. masses --      4.3863                 3.6320                 6.8405
 Frc consts  --      1.0155                 0.8505                 1.8863
 IR Inten    --      0.7337                 9.9814                17.1038

                     31                     32                     33
                      A                      A                      A
 Frequencies --    703.2770               715.3371               735.6888
 Red. masses --      4.3327                 3.5525                 4.1185
 Frc consts  --      1.2626                 1.0711                 1.3134
 IR Inten    --      8.7548                 7.2681                24.5952

                     34                     35                     36
                      A                      A                      A
 Frequencies --    780.8595               791.2061               812.1551
 Red. masses --      1.4887                 2.5004                 2.6319
 Frc consts  --      0.5348                 0.9222                 1.0228
 IR Inten    --     36.6199                 7.5204                27.3096

                     37                     38                     39
                      A                      A                      A
 Frequencies --    835.5150               840.8952               882.5957
 Red. masses --      1.5710                 1.4067                 1.8507
 Frc consts  --      0.6462                 0.5861                 0.8494
 IR Inten    --      9.3799                43.5858                24.8274

                     40                     41                     42
                      A                      A                      A
 Frequencies --    898.0644               900.5584               904.8002
 Red. masses --      2.0561                 1.5696                 1.6953
 Frc consts  --      0.9770                 0.7500                 0.8177
 IR Inten    --     15.5057                 7.8286                 5.1878

                     43                     44                     45
                      A                      A                      A
 Frequencies --    955.8198               970.2663               972.7596
 Red. masses --      2.4309                 1.4603                 2.2488
 Frc consts  --      1.3085                 0.8100                 1.2538
 IR Inten    --     17.0263                 5.7666                36.3666

                     46                     47                     48
                      A                      A                      A
 Frequencies --    975.4071              1007.3427              1027.5933
 Red. masses --      1.4644                 1.2801                 2.9705
 Frc consts  --      0.8209                 0.7653                 1.8481
 IR Inten    --      6.9499                 0.4673                16.0083

                     49                     50                     51
                      A                      A                      A
 Frequencies --   1033.1136              1035.8369              1061.9483
 Red. masses --      2.9681                 5.0824                 1.8266
 Frc consts  --      1.8665                 3.2129                 1.2137
 IR Inten    --     12.7183                51.6442                 2.7777

                     52                     53                     54
                      A                      A                      A
 Frequencies --   1077.5932              1099.2575              1140.6985
 Red. masses --      2.6915                 1.8081                 1.9009
 Frc consts  --      1.8415                 1.2873                 1.4573
 IR Inten    --      5.8718                18.0599                18.1559

                     55                     56                     57
                      A                      A                      A
 Frequencies --   1144.8955              1150.1979              1169.8425
 Red. masses --      1.7688                 1.8689                 1.5741
 Frc consts  --      1.3660                 1.4567                 1.2692
 IR Inten    --     34.5024                22.6857                 3.2255

                     58                     59                     60
                      A                      A                      A
 Frequencies --   1173.9480              1199.3610              1208.4451
 Red. masses --      1.4573                 1.1244                 1.8444
 Frc consts  --      1.1833                 0.9529                 1.5870
 IR Inten    --     14.2094                 0.3274                 2.1375

                     61                     62                     63
                      A                      A                      A
 Frequencies --   1221.6711              1227.8385              1245.2518
 Red. masses --      2.0613                 2.2186                 1.5144
 Frc consts  --      1.8126                 1.9707                 1.3836
 IR Inten    --      9.9946                15.8068                 7.1995

                     64                     65                     66
                      A                      A                      A
 Frequencies --   1256.0106              1274.8003              1306.3643
 Red. masses --      1.4731                 1.4176                 2.8175
 Frc consts  --      1.3692                 1.3574                 2.8330
 IR Inten    --      0.9207                 9.4412                 7.1438

                     67                     68                     69
                      A                      A                      A
 Frequencies --   1316.4119              1342.4792              1347.4986
 Red. masses --      1.4391                 1.7044                 3.3729
 Frc consts  --      1.4693                 1.8098                 3.6084
 IR Inten    --      0.5048                 8.8610                 2.8553

                     70                     71                     72
                      A                      A                      A
 Frequencies --   1354.5667              1360.8364              1377.0812
 Red. masses --      2.1046                 1.4501                 1.4474
 Frc consts  --      2.2752                 1.5822                 1.6172
 IR Inten    --      9.6601                 8.4856                 4.2008

                     73                     74                     75
                      A                      A                      A
 Frequencies --   1390.0725              1406.2734              1435.7104
 Red. masses --      1.6363                 1.3340                 1.1920
 Frc consts  --      1.8629                 1.5543                 1.4477
 IR Inten    --      6.0593                 1.0555                55.2135

                     76                     77                     78
                      A                      A                      A
 Frequencies --   1440.3774              1455.9790              1460.9327
 Red. masses --      2.4152                 1.2894                 1.2299
 Frc consts  --      2.9523                 1.6105                 1.5466
 IR Inten    --     33.0714                67.2704                60.2581

                     79                     80                     81
                      A                      A                      A
 Frequencies --   1497.0544              1503.9831              1509.6265
 Red. masses --      1.9188                 1.0722                 2.5883
 Frc consts  --      2.5337                 1.4289                 3.4754
 IR Inten    --     19.5053                16.7013                96.6407

                     82                     83                     84
                      A                      A                      A
 Frequencies --   1515.1253              1516.7921              1522.0346
 Red. masses --      1.1049                 1.0648                 1.1089
 Frc consts  --      1.4945                 1.4433                 1.5136
 IR Inten    --     35.1022                14.7470                 0.9976

                     85                     86                     87
                      A                      A                      A
 Frequencies --   1543.6718              1614.2076              1630.9247
 Red. masses --      2.1926                 6.8576                 1.7650
 Frc consts  --      3.0784                10.5278                 2.7661
 IR Inten    --     31.8020                13.4889                72.2578

                     88                     89                     90
                      A                      A                      A
 Frequencies --   1635.0471              1642.2000              1661.3809
 Red. masses --      1.8970                 6.2959                 5.3677
 Frc consts  --      2.9879                10.0037                 8.7293
 IR Inten    --     50.1097                 3.0055                 2.3738

                     91                     92                     93
                      A                      A                      A
 Frequencies --   3037.5645              3062.8140              3071.4252
 Red. masses --      1.0824                 1.0678                 1.0625
 Frc consts  --      5.8842                 5.9018                 5.9057
 IR Inten    --     25.9565                22.8894                52.7482

                     94                     95                     96
                      A                      A                      A
 Frequencies --   3090.7651              3119.6080              3121.4456
 Red. masses --      1.0845                 1.0358                 1.0997
 Frc consts  --      6.1042                 5.9394                 6.3129
 IR Inten    --     15.5046                 3.7238                57.0502

                     97                     98                     99
                      A                      A                      A
 Frequencies --   3127.4026              3195.3775              3208.4937
 Red. masses --      1.0949                 1.0877                 1.0876
 Frc consts  --      6.3093                 6.5433                 6.5963
 IR Inten    --     57.8929                27.2370                 7.7453

                    100                    101                    102
                      A                      A                      A
 Frequencies --   3213.8240              3218.2067              3220.3536
 Red. masses --      1.1093                 1.0897                 1.0919
 Frc consts  --      6.7506                 6.6495                 6.6716
 IR Inten    --      6.6992                13.1839                36.6744

                    103                    104                    105
                      A                      A                      A
 Frequencies --   3223.1504              3228.1509              3229.6970
 Red. masses --      1.1090                 1.0912                 1.0974
 Frc consts  --      6.7879                 6.6997                 6.7441
 IR Inten    --      7.5057                 2.5211                32.6018

                    106                    107                    108
                      A                      A                      A
 Frequencies --   3243.4997              3393.8935              3454.8518
 Red. masses --      1.0937                 1.0617                 1.0888
 Frc consts  --      6.7794                 7.2054                 7.6573
 IR Inten    --      5.9523               122.2309               159.1644

 - Thermochemistry -
 -------------------
 Temperature   298.150 Kelvin.  Pressure   1.00000 Atm.
 Atom     1 has atomic number  6 and mass  12.00000

 Molecular mass:   306.08163 amu.
 Principal axes and moments of inertia in atomic units:
                           1         2         3
     Eigenvalues --  3143.08461********************
           X            0.99990   0.00896  -0.01060
           Y           -0.00922   0.99965  -0.02475
           Z            0.01038   0.02484   0.99964
 This molecule is an asymmetric top.
 Rotational symmetry number  1.
 Warning -- assumption of classical behavior for rotation
           may cause significant error
 Rotational temperatures (Kelvin)      0.02756     0.00646     0.00606
 Rotational constants (GHZ):           0.57419     0.13470     0.12622
 Zero-point vibrational energy     834213.5 (Joules/Mol)
                                  199.38182 (Kcal/Mol)
 Warning -- explicit consideration of  27 degrees of freedom as
           vibrations may cause significant error
 Vibrational temperatures:     11.19    52.90    63.31   113.10   149.49
          (Kelvin)            169.39   183.88   254.06   280.56   284.48
                              295.88   311.23   357.65   393.46   438.78
                              502.91   521.91   564.27   605.10   640.57
                              658.15   665.90   685.43   686.70   755.43
                              792.47   856.50   901.89   907.05   984.32
                             1011.86  1029.21  1058.49  1123.48  1138.37
                             1168.51  1202.12  1209.86  1269.86  1292.11
                             1295.70  1301.81  1375.21  1396.00  1399.58
                             1403.39  1449.34  1478.48  1486.42  1490.34
                             1527.91  1550.42  1581.59  1641.21  1647.25
                             1654.88  1683.14  1689.05  1725.61  1738.68
                             1757.71  1766.59  1791.64  1807.12  1834.15
                             1879.57  1894.02  1931.53  1938.75  1948.92
                             1957.94  1981.31  2000.00  2023.31  2065.67
                             2072.38  2094.83  2101.96  2153.93  2163.90
                             2172.02  2179.93  2182.33  2189.87  2221.00
                             2322.48  2346.54  2352.47  2362.76  2390.36
                             4370.38  4406.71  4419.10  4446.92  4488.42
                             4491.06  4499.63  4597.44  4616.31  4623.98
                             4630.28  4633.37  4637.39  4644.59  4646.81
                             4666.67  4883.06  4970.76

 Zero-point correction=                           0.317735 (Hartree/Particle)
 Thermal correction to Energy=                    0.335461
 Thermal correction to Enthalpy=                  0.336405
 Thermal correction to Gibbs Free Energy=         0.269589
 Sum of electronic and zero-point Energies=          -1633.355828
 Sum of electronic and thermal Energies=             -1633.338102
 Sum of electronic and thermal Enthalpies=           -1633.337158
 Sum of electronic and thermal Free Energies=        -1633.403974

                     E (Thermal)             CV                S
                      KCal/Mol        Cal/Mol-Kelvin    Cal/Mol-Kelvin
 Total                  210.505             69.088            140.626
 Electronic               0.000              0.000              0.000
 Translational            0.889              2.981             43.053
 Rotational               0.889              2.981             34.753
 Vibrational            208.727             63.126             62.820
 Vibration     1          0.593              1.987              8.510
 Vibration     2          0.594              1.982              5.426
 Vibration     3          0.595              1.980              5.070
 Vibration     4          0.600              1.964              3.925
 Vibration     5          0.605              1.946              3.380
 Vibration     6          0.608              1.935              3.137
 Vibration     7          0.611              1.925              2.979
 Vibration     8          0.628              1.871              2.364
 Vibration     9          0.636              1.847              2.180
 Vibration    10          0.637              1.843              2.154
 Vibration    11          0.640              1.832              2.082
 Vibration    12          0.645              1.816              1.990
 Vibration    13          0.662              1.765              1.741
 Vibration    14          0.676              1.722              1.574
 Vibration    15          0.696              1.664              1.390
 Vibration    16          0.727              1.576              1.168
 Vibration    17          0.737              1.549              1.110
 Vibration    18          0.760              1.487              0.992
 Vibration    19          0.783              1.426              0.890
 Vibration    20          0.805              1.371              0.810
 Vibration    21          0.816              1.344              0.774
 Vibration    22          0.820              1.333              0.758
 Vibration    23          0.833              1.302              0.720
 Vibration    24          0.834              1.300              0.717
 Vibration    25          0.880              1.195              0.598
 Vibration    26          0.906              1.138              0.543
 Vibration    27          0.953              1.042              0.458

 Optimization completed on the basis of negligible forces.
    -- Stationary point found.
 Normal termination of Gaussian 16 at Sun Jul 11 16:42:59 2021.

 ----------------------------------------------------------------------
 #p b3lyp/6-31G(d) scrf=(iefpcm,read,solvent=water) geom=allcheck guess
 =read
 ----------------------------------------------------------------------

 Structure from the checkpoint file:  "SET_328_BBB2_conf1.geo_240_195.chk"
 ---------------------------------------
 SET_328_BBB2_conf1.geo_240_195 geometry
 ---------------------------------------
 Charge =  1 Multiplicity = 1

 SCF Done:  E(RB3LYP) =  -1633.67356270     A.U. after    1 cycles
 Normal termination of Gaussian 16 at Sun Jul 11 16:43:14 2021.

 -----------------------------
 #p B3LYP/6-31G* geom=allcheck
 -----------------------------

 Structure from the checkpoint file:  "SET_328_BBB2_conf1.geo_240_195.chk"
 ---------------------------------------
 SET_328_BBB2_conf1.geo_240_195 geometry
 ---------------------------------------
 Charge =  1 Multiplicity = 1

 SCF Done:  E(RB3LYP) =  -1633.57120069     A.U. after   15 cycles

 The electronic state is 1-A.
 Alpha  occ. eigenvalues -- -101.62939-101.62617 -14.63334 -10.41337 -10.41069
 Alpha  occ. eigenvalues --  -10.34756 -10.34613 -10.34523 -10.34071 -10.33078
 Alpha  occ. eigenvalues --  -10.32892 -10.32512 -10.31970 -10.31592 -10.31311
 Alpha  occ. eigenvalues --  -10.31013 -10.30562 -10.29872 -10.29527 -10.29416
 Alpha  occ. eigenvalues --   -9.54539  -9.54213  -7.30971  -7.30649  -7.29960
 Alpha  occ. eigenvalues --   -7.29904  -7.29634  -7.29573  -1.18340  -1.00754
 Alpha  occ. eigenvalues --   -0.99421  -0.95792  -0.94243  -0.93278  -0.91142
 Alpha  occ. eigenvalues --   -0.89000  -0.87481  -0.86111  -0.83773  -0.82457
 Alpha  occ. eigenvalues --   -0.78705  -0.77065  -0.74734  -0.73170  -0.71872
 Alpha  occ. eigenvalues --   -0.70232  -0.68255  -0.67577  -0.66356  -0.63187
 Alpha  occ. eigenvalues --   -0.61626  -0.60430  -0.60174  -0.59035  -0.58601
 Alpha  occ. eigenvalues --   -0.57540  -0.56393  -0.56102  -0.55358  -0.53874
 Alpha  occ. eigenvalues --   -0.53426  -0.53045  -0.52114  -0.51212  -0.50220
 Alpha  occ. eigenvalues --   -0.49486  -0.48928  -0.47790  -0.47565  -0.45948
 Alpha  occ. eigenvalues --   -0.45309  -0.44570  -0.42056  -0.41212  -0.40034
 Alpha  occ. eigenvalues --   -0.38065  -0.37949  -0.37248  -0.34246  -0.32820
 Alpha virt. eigenvalues --   -0.14978  -0.13676  -0.12167  -0.11113  -0.10437
 Alpha virt. eigenvalues --   -0.08874  -0.07270  -0.05869  -0.04567  -0.03880
 Alpha virt. eigenvalues --   -0.02521  -0.01721  -0.01543  -0.00536  -0.00147

 Mulliken charges:
               1
     1  C   -0.358763
     2  H    0.229387
     3  H    0.233349
     4  H    0.239153
     5  N   -0.604387
     6  H    0.406377
     7  C   -0.092585
     8  C    0.081010
     9  C    0.128893
    10  C   -0.178004
    11  C   -0.118443
    12  C   -0.120881
    13  C   -0.214098
    14  H    0.124846
    15  H    0.170243
    16  H    0.176628
    17  H    0.174742
    18  H    0.213736
    19  C   -0.307126
    20  H    0.153945
    21  H    0.180348
    22  C   -0.284615
    23  H    0.184880
    24  H    0.171432
    25  C   -0.253029
    26  H    0.159926
    27  C    0.164225
    28  C   -0.175396
    29  H    0.156290
    30  C   -0.075762
    31  Cl   0.039396
    32  C   -0.076090
    33  Cl   0.049336
    34  C   -0.122840
    35  H    0.181667
    36  C   -0.193231
    37  H    0.146600
    38  H    0.408838
 Sum of Mulliken charges =   1.00000

 Dipole moment (field-independent basis, Debye):
    X=            -20.2731    Y=             -2.9513    Z=             -1.2355  Tot=             20.5240
 Quadrupole moment (field-independent basis, Debye-Ang):
   XX=            -30.7421   YY=           -110.3632   ZZ=           -121.1825
   XY=             12.8001   XZ=             -9.7033   YZ=             -0.5772

 Normal termination of Gaussian 16 at Sun Jul 11 16:44:19 2021.
 Gaussian 16:  ES64L-G16RevB.01 20-Dec-2017

 --------------------------------------------------------
 #p mp2/aug-cc-pVDZ scf=tight maxdisk=180GB geom=allcheck
 --------------------------------------------------------

 Structure from the checkpoint file:  "SET_328_BBB2_conf1.geo_240_195.chk"
 ---------------------------------------
 SET_328_BBB2_conf1.geo_240_195 geometry
 ---------------------------------------
 Charge =  1 Multiplicity = 1

                         Standard orientation:
 ---------------------------------------------------------------------
 Center     Atomic      Atomic             Coordinates (Angstroms)
 Number     Number       Type             X           Y           Z
 ---------------------------------------------------------------------
      1          6           0       -5.690861   -1.699512    0.631015
      2          1           0       -6.686322   -1.586229    0.206392
      3          1           0       -5.721411   -1.557644    1.709876
      4          1           0       -5.288473   -2.680054    0.387078
      5          7           0       -4.813644   -0.643016    0.040064
      6          1           0       -4.774136   -0.763506   -0.983925
      7          6           0       -3.391698   -0.608781    0.584845
      8          6           0       -2.683242    0.636026    0.066062
      9          6           0       -1.419801    0.569653   -0.551051
     10          6           0       -0.847461    1.753870   -1.037595
     11          6           0       -1.484191    2.984370   -0.899222
     12          6           0       -2.713095    3.054459   -0.240551
     13          6           0       -3.296831    1.886470    0.240188
     14          1           0       -4.242562    1.956801    0.768867
     15          1           0       -3.210528    4.007646   -0.097763
     16          1           0       -1.016142    3.883476   -1.286205
     17          1           0        0.121911    1.703180   -1.521108
     18          1           0       -3.518069   -0.531052    1.669238
     19          6           0       -2.696163   -1.925614    0.226431
     20          1           0       -2.963662   -2.212561   -0.797834
     21          1           0       -3.043639   -2.723141    0.886948
     22          6           0       -1.179532   -1.787464    0.318478
     23          1           0       -0.710115   -2.754857    0.122119
     24          1           0       -0.887080   -1.489570    1.331794
     25          6           0       -0.669742   -0.752498   -0.699904
     26          1           0       -0.887529   -1.148614   -1.700520
     27          6           0        0.840254   -0.602584   -0.612856
     28          6           0        1.449749   -0.096075    0.541011
     29          1           0        0.850678    0.233592    1.381597
     30          6           0        2.835691    0.002742    0.630254
     31         17           0        3.538808    0.644963    2.100482
     32          6           0        3.640574   -0.405672   -0.439836
     33         17           0        5.385510   -0.292654   -0.365402
     34          6           0        3.043487   -0.911631   -1.592358
     35          1           0        3.668841   -1.225651   -2.419174
     36          6           0        1.655883   -1.007986   -1.673389
     37          1           0        1.202208   -1.403700   -2.575631
     38          1           0       -5.269990    0.265110    0.192316
 ---------------------------------------------------------------------

 SCF Done:  E(RHF) =  -1627.57278670     A.U. after   17 cycles
