 Gaussian 16, Revision B.01,

 -----------------------------------------------------------
 #p b3lyp/6-31G(d) opt freq scrf=(iefpcm,read,solvent=water)
 -----------------------------------------------------------

 -----------------------------------------
 SET_328_BBB212_conf1.geo_300_135 geometry
 -----------------------------------------
 Symbolic Z-matrix:
 Charge = -1 Multiplicity = 1

 SCF Done:  E(RB3LYP) =  -731.150695154     A.U. after   13 cycles
 SCF Done:  E(RB3LYP) =  -731.181313718     A.U. after   12 cycles
 SCF Done:  E(RB3LYP) =  -731.194752168     A.U. after   12 cycles
 SCF Done:  E(RB3LYP) =  -731.195675572     A.U. after   11 cycles
 SCF Done:  E(RB3LYP) =  -731.195996882     A.U. after   10 cycles
 SCF Done:  E(RB3LYP) =  -731.196106875     A.U. after   10 cycles
 SCF Done:  E(RB3LYP) =  -731.196105372     A.U. after    9 cycles
 SCF Done:  E(RB3LYP) =  -731.196130192     A.U. after    9 cycles
 SCF Done:  E(RB3LYP) =  -731.196155415     A.U. after    8 cycles
 SCF Done:  E(RB3LYP) =  -731.196155452     A.U. after    7 cycles
 SCF Done:  E(RB3LYP) =  -731.196158766     A.U. after    7 cycles
 Optimization completed.
    -- Stationary point found.
 Normal termination of Gaussian 16 at Sun Jul 11 16:09:11 2021.

 --------------------------------------------------------------------
 #P Geom=AllCheck Guess=TCheck SCRF=Check GenChk RB3LYP/6-31G(d) Freq
 --------------------------------------------------------------------

 Structure from the checkpoint file:  "SET_328_BBB212_conf1.geo_300_135.chk"
 -----------------------------------------
 SET_328_BBB212_conf1.geo_300_135 geometry
 -----------------------------------------
 Charge = -1 Multiplicity = 1

 SCF Done:  E(RB3LYP) =  -731.196158766     A.U. after    1 cycles

  Exact polarizability: 281.270 -11.141 203.169 -34.935   1.596 196.709
 Approx polarizability: 309.833 -16.659 232.789 -43.500   1.983 229.101

                      1                      2                      3
                      A                      A                      A
 Frequencies --     31.2136                43.3325                49.9123
 Red. masses --      3.7493                 4.2110                 5.7377
 Frc consts  --      0.0022                 0.0047                 0.0084
 IR Inten    --      1.3868                 4.3749                 8.0852

                      4                      5                      6
                      A                      A                      A
 Frequencies --    105.0231               160.1648               179.8714
 Red. masses --      4.7192                 5.5288                 4.3062
 Frc consts  --      0.0307                 0.0836                 0.0821
 IR Inten    --      1.9772                 2.2308                 0.3042

                      7                      8                      9
                      A                      A                      A
 Frequencies --    224.1988               273.6652               279.5034
 Red. masses --      3.0219                 2.9516                 4.2101
 Frc consts  --      0.0895                 0.1302                 0.1938
 IR Inten    --      1.6067                 0.5605                 3.4863

                     10                     11                     12
                      A                      A                      A
 Frequencies --    297.0832               303.4861               313.4679
 Red. masses --      1.3627                 1.3094                 1.1103
 Frc consts  --      0.0709                 0.0711                 0.0643
 IR Inten    --      2.0755                 1.1840               191.2175

                     13                     14                     15
                      A                      A                      A
 Frequencies --    333.0636               346.0251               372.2607
 Red. masses --      2.0190                 2.8677                 3.9245
 Frc consts  --      0.1320                 0.2023                 0.3204
 IR Inten    --      1.7973                 2.1513                 2.0119

                     16                     17                     18
                      A                      A                      A
 Frequencies --    422.9388               423.8196               431.9474
 Red. masses --      3.6574                 3.4357                 3.4312
 Frc consts  --      0.3855                 0.3636                 0.3772
 IR Inten    --      2.6918                 2.3059                 0.6013

                     19                     20                     21
                      A                      A                      A
 Frequencies --    453.7989               484.6981               491.2743
 Red. masses --      4.6631                 3.7642                 3.5865
 Frc consts  --      0.5658                 0.5210                 0.5100
 IR Inten    --     10.4272                 2.3453                 3.1180

                     22                     23                     24
                      A                      A                      A
 Frequencies --    541.8169               563.4755               576.6293
 Red. masses --      3.8304                 2.3472                 2.3580
 Frc consts  --      0.6625                 0.4391                 0.4619
 IR Inten    --     10.1505                45.2758                31.1914

                     25                     26                     27
                      A                      A                      A
 Frequencies --    648.5062               652.8120               656.0885
 Red. masses --      6.8481                 5.5455                 6.8213
 Frc consts  --      1.6969                 1.3924                 1.7300
 IR Inten    --      1.4306                 4.6878                 0.1711

                     28                     29                     30
                      A                      A                      A
 Frequencies --    737.1422               753.5936               766.4955
 Red. masses --      4.3040                 3.9232                 2.7383
 Frc consts  --      1.3779                 1.3127                 0.9479
 IR Inten    --      9.4308                 5.7915                18.1941

                     31                     32                     33
                      A                      A                      A
 Frequencies --    818.1663               829.4934               842.5978
 Red. masses --      1.2519                 1.2922                 2.2004
 Frc consts  --      0.4937                 0.5238                 0.9204
 IR Inten    --      1.3674                10.0680                77.5404

                     34                     35                     36
                      A                      A                      A
 Frequencies --    844.9040               846.4404               852.7389
 Red. masses --      2.2306                 3.7468                 4.0091
 Frc consts  --      0.9382                 1.5816                 1.7176
 IR Inten    --     33.8612                19.3249                23.7271

                     37                     38                     39
                      A                      A                      A
 Frequencies --    926.0480               943.3359               947.0328
 Red. masses --      1.8672                 1.4430                 1.3204
 Frc consts  --      0.9434                 0.7566                 0.6977
 IR Inten    --      5.2008                 0.3619                 0.0026

                     40                     41                     42
                      A                      A                      A
 Frequencies --    950.7032               956.7184               963.2460
 Red. masses --      1.3696                 1.3764                 1.3276
 Frc consts  --      0.7294                 0.7422                 0.7258
 IR Inten    --      2.6168                 2.4806                 0.2895

                     43                     44                     45
                      A                      A                      A
 Frequencies --   1003.0732              1027.1115              1032.9971
 Red. masses --      2.8650                 1.3894                 2.5802
 Frc consts  --      1.6984                 0.8636                 1.6222
 IR Inten    --      6.7521                 2.1562                 9.6421

                     46                     47                     48
                      A                      A                      A
 Frequencies --   1100.1850              1123.3342              1129.8170
 Red. masses --      1.9070                 1.6481                 2.2369
 Frc consts  --      1.3600                 1.2253                 1.6823
 IR Inten    --     19.4146                14.1686                 3.0337

                     49                     50                     51
                      A                      A                      A
 Frequencies --   1142.8740              1174.7670              1199.0398
 Red. masses --      1.6212                 1.8857                 1.2425
 Frc consts  --      1.2477                 1.5333                 1.0525
 IR Inten    --     15.9235                14.0696               148.3095

                     52                     53                     54
                      A                      A                      A
 Frequencies --   1210.2573              1218.6390              1258.1160
 Red. masses --      1.3247                 1.2376                 3.4673
 Frc consts  --      1.1432                 1.0829                 3.2336
 IR Inten    --    236.5750                49.9015                17.4252

                     55                     56                     57
                      A                      A                      A
 Frequencies --   1262.9398              1276.9515              1301.5335
 Red. masses --      3.8327                 3.0102                 3.3417
 Frc consts  --      3.6018                 2.8919                 3.3353
 IR Inten    --     58.1422                30.5233               160.9329

                     58                     59                     60
                      A                      A                      A
 Frequencies --   1339.0785              1348.2765              1387.8735
 Red. masses --      1.7319                 2.3516                 1.8178
 Frc consts  --      1.8297                 2.5187                 2.0630
 IR Inten    --     46.5215                26.1124                32.7654

                     61                     62                     63
                      A                      A                      A
 Frequencies --   1405.8473              1410.4753              1419.4161
 Red. masses --      2.3984                 1.4764                 1.2567
 Frc consts  --      2.7928                 1.7306                 1.4918
 IR Inten    --    226.6965                86.4540                 6.0387

                     64                     65                     66
                      A                      A                      A
 Frequencies --   1461.0414              1475.7056              1504.6003
 Red. masses --      3.3581                 2.6577                 1.0568
 Frc consts  --      4.2235                 3.4100                 1.4095
 IR Inten    --     28.4152                53.2963                 5.6382

                     67                     68                     69
                      A                      A                      A
 Frequencies --   1511.7579              1519.5464              1524.0256
 Red. masses --      1.0622                 1.0687                 1.0570
 Frc consts  --      1.4302                 1.4539                 1.4464
 IR Inten    --      3.5632                13.0002                12.5425

                     70                     71                     72
                      A                      A                      A
 Frequencies --   1552.7101              1561.2568              1567.3198
 Red. masses --      3.9532                 2.4703                 4.0352
 Frc consts  --      5.6154                 3.5477                 5.8403
 IR Inten    --    381.7171               142.6002               300.6604

                     73                     74                     75
                      A                      A                      A
 Frequencies --   1642.7618              1652.0567              1671.3752
 Red. masses --      5.5810                 5.6788                 5.7241
 Frc consts  --      8.8738                 9.1318                 9.4211
 IR Inten    --     31.5957               349.6237                59.6568

                     76                     77                     78
                      A                      A                      A
 Frequencies --   3060.6940              3066.4370              3128.6427
 Red. masses --      1.0348                 1.0358                 1.1019
 Frc consts  --      5.7115                 5.7384                 6.3550
 IR Inten    --     44.7128                53.2011                14.6561

                     79                     80                     81
                      A                      A                      A
 Frequencies --   3132.5853              3140.1757              3141.4949
 Red. masses --      1.1016                 1.1028                 1.1029
 Frc consts  --      6.3693                 6.4069                 6.4130
 IR Inten    --    131.1167                58.1516                61.8514

                     82                     83                     84
                      A                      A                      A
 Frequencies --   3150.9797              3162.2763              3171.8448
 Red. masses --      1.0850                 1.0874                 1.0927
 Frc consts  --      6.3467                 6.4067                 6.4772
 IR Inten    --     54.0282                67.1174                92.8048

                     85                     86                     87
                      A                      A                      A
 Frequencies --   3190.0582              3196.8588              3204.9501
 Red. masses --      1.0870                 1.0901                 1.0913
 Frc consts  --      6.5177                 6.5640                 6.6046
 IR Inten    --     24.4614                54.4386                33.2196

                     88                     89                     90
                      A                      A                      A
 Frequencies --   3206.2107              3228.3755              3730.4412
 Red. masses --      1.0910                 1.0914                 1.0663
 Frc consts  --      6.6080                 6.7019                 8.7428
 IR Inten    --     16.5254                26.1739               180.0727

 - Thermochemistry -
 -------------------
 Temperature   298.150 Kelvin.  Pressure   1.00000 Atm.
 Atom     1 has atomic number  6 and mass  12.00000

 Molecular mass:   227.10720 amu.
 Principal axes and moments of inertia in atomic units:
                           1         2         3
     Eigenvalues --  2097.108166893.416557765.08224
           X            0.99996   0.00809  -0.00305
           Y           -0.00806   0.99993   0.00836
           Z            0.00311  -0.00834   0.99996
 This molecule is an asymmetric top.
 Rotational symmetry number  1.
 Warning -- assumption of classical behavior for rotation
           may cause significant error
 Rotational temperatures (Kelvin)      0.04130     0.01256     0.01115
 Rotational constants (GHZ):           0.86059     0.26181     0.23242
 Zero-point vibrational energy     687658.5 (Joules/Mol)
                                  164.35432 (Kcal/Mol)
 Warning -- explicit consideration of  24 degrees of freedom as
           vibrations may cause significant error
 Vibrational temperatures:     44.91    62.35    71.81   151.10   230.44
          (Kelvin)            258.79   322.57   393.74   402.14   427.44
                              436.65   451.01   479.20   497.85   535.60
                              608.51   609.78   621.48   652.92   697.37
                              706.83   779.55   810.72   829.64   933.06
                              939.25   943.96  1060.58  1084.25  1102.82
                             1177.16  1193.46  1212.31  1215.63  1217.84
                             1226.90  1332.38  1357.25  1362.57  1367.85
                             1376.50  1385.90  1443.20  1477.78  1486.25
                             1582.92  1616.23  1625.55  1644.34  1690.23
                             1725.15  1741.29  1753.35  1810.15  1817.09
                             1837.25  1872.62  1926.64  1939.87  1996.84
                             2022.70  2029.36  2042.22  2102.11  2123.21
                             2164.78  2175.08  2186.29  2192.73  2234.00
                             2246.30  2255.02  2363.57  2376.94  2404.74
                             4403.66  4411.92  4501.42  4507.09  4518.01
                             4519.91  4533.56  4549.81  4563.58  4589.78
                             4599.57  4611.21  4613.02  4644.91  5367.27

 Zero-point correction=                           0.261915 (Hartree/Particle)
 Thermal correction to Energy=                    0.276896
 Thermal correction to Enthalpy=                  0.277840
 Thermal correction to Gibbs Free Energy=         0.219481
 Sum of electronic and zero-point Energies=           -730.934243
 Sum of electronic and thermal Energies=              -730.919263
 Sum of electronic and thermal Enthalpies=            -730.918318
 Sum of electronic and thermal Free Energies=         -730.976678

                     E (Thermal)             CV                S
                      KCal/Mol        Cal/Mol-Kelvin    Cal/Mol-Kelvin
 Total                  173.755             60.186            122.828
 Electronic               0.000              0.000              0.000
 Translational            0.889              2.981             42.163
 Rotational               0.889              2.981             33.084
 Vibrational            171.977             54.224             47.581
 Vibration     1          0.594              1.983              5.751
 Vibration     2          0.595              1.980              5.101
 Vibration     3          0.595              1.978              4.821
 Vibration     4          0.605              1.945              3.359
 Vibration     5          0.622              1.891              2.548
 Vibration     6          0.629              1.867              2.330
 Vibration     7          0.649              1.804              1.925
 Vibration     8          0.676              1.722              1.573
 Vibration     9          0.680              1.711              1.537
 Vibration    10          0.691              1.679              1.433
 Vibration    11          0.695              1.667              1.398
 Vibration    12          0.701              1.648              1.344
 Vibration    13          0.715              1.609              1.245
 Vibration    14          0.724              1.583              1.184
 Vibration    15          0.744              1.529              1.070
 Vibration    16          0.785              1.420              0.882
 Vibration    17          0.786              1.418              0.879
 Vibration    18          0.793              1.401              0.852
 Vibration    19          0.812              1.352              0.784
 Vibration    20          0.841              1.284              0.698
 Vibration    21          0.847              1.269              0.680
 Vibration    22          0.897              1.158              0.561
 Vibration    23          0.919              1.110              0.517
 Vibration    24          0.933              1.082              0.492

 Optimization completed.
    -- Stationary point found.
 Normal termination of Gaussian 16 at Sun Jul 11 16:19:29 2021.

 ----------------------------------------------------------------------
 #p b3lyp/6-31G(d) scrf=(iefpcm,read,solvent=water) geom=allcheck guess
 =read
 ----------------------------------------------------------------------

 Structure from the checkpoint file:  "SET_328_BBB212_conf1.geo_300_135.chk"
 -----------------------------------------
 SET_328_BBB212_conf1.geo_300_135 geometry
 -----------------------------------------
 Charge = -1 Multiplicity = 1

 SCF Done:  E(RB3LYP) =  -731.196158766     A.U. after    1 cycles
 Normal termination of Gaussian 16 at Sun Jul 11 16:19:38 2021.

 -----------------------------
 #p B3LYP/6-31G* geom=allcheck
 -----------------------------

 Structure from the checkpoint file:  "SET_328_BBB212_conf1.geo_300_135.chk"
 -----------------------------------------
 SET_328_BBB212_conf1.geo_300_135 geometry
 -----------------------------------------
 Charge = -1 Multiplicity = 1

 SCF Done:  E(RB3LYP) =  -731.090743622     A.U. after   19 cycles

 The electronic state is 1-A.
 Alpha  occ. eigenvalues --  -19.09103 -18.87213 -10.15021 -10.09091 -10.08625
 Alpha  occ. eigenvalues --  -10.08466 -10.08318 -10.08192 -10.07984 -10.06398
 Alpha  occ. eigenvalues --  -10.06049 -10.03772 -10.01865 -10.01718 -10.01199
 Alpha  occ. eigenvalues --   -9.99313  -9.99117  -0.96995  -0.75747  -0.75083
 Alpha  occ. eigenvalues --   -0.70075  -0.64797  -0.64515  -0.61914  -0.57756
 Alpha  occ. eigenvalues --   -0.55941  -0.54023  -0.52132  -0.50203  -0.45577
 Alpha  occ. eigenvalues --   -0.44588  -0.42348  -0.39580  -0.37649  -0.36278
 Alpha  occ. eigenvalues --   -0.34549  -0.33673  -0.32050  -0.31334  -0.30709
 Alpha  occ. eigenvalues --   -0.29729  -0.28332  -0.27756  -0.27358  -0.26533
 Alpha  occ. eigenvalues --   -0.25898  -0.24325  -0.23857  -0.23476  -0.22218
 Alpha  occ. eigenvalues --   -0.21392  -0.19441  -0.18840  -0.16241  -0.16122
 Alpha  occ. eigenvalues --   -0.14986  -0.12316  -0.10927  -0.07361  -0.01527
 Alpha  occ. eigenvalues --    0.00754
 Alpha virt. eigenvalues --    0.09936   0.11740   0.14665   0.17508   0.19338
 Alpha virt. eigenvalues --    0.20299   0.21572   0.23314   0.25172   0.25456
 Alpha virt. eigenvalues --    0.25519   0.26108   0.26990   0.27790   0.29998

 Mulliken charges:
               1
     1  C   -0.446323
     2  H    0.138167
     3  H    0.141903
     4  H    0.101843
     5  C   -0.044647
     6  C   -0.445482
     7  H    0.136865
     8  H    0.134806
     9  H    0.113544
    10  C    0.183644
    11  C   -0.179104
    12  C   -0.200304
    13  C    0.341525
    14  O   -0.660963
    15  H    0.395019
    16  C   -0.167278
    17  C   -0.204726
    18  H    0.110894
    19  H    0.105753
    20  H    0.094963
    21  H    0.144409
    22  C    0.134876
    23  C   -0.204902
    24  H    0.055615
    25  C   -0.233653
    26  H    0.049215
    27  C    0.420819
    28  O   -0.716322
    29  C   -0.225877
    30  H    0.053162
    31  C   -0.190933
    32  H    0.063493
 Sum of Mulliken charges =  -1.00000

 Dipole moment (field-independent basis, Debye):
    X=            -13.4152    Y=              3.9281    Z=             -1.7297  Tot=             14.0850
 Quadrupole moment (field-independent basis, Debye-Ang):
   XX=           -179.5959   YY=           -111.8932   ZZ=           -101.9658
   XY=             26.8109   XZ=              1.3184   YZ=              5.8220

 Normal termination of Gaussian 16 at Sun Jul 11 16:20:29 2021.
 Gaussian 16:  ES64L-G16RevB.01 20-Dec-2017

 --------------------------------------------------------
 #p mp2/aug-cc-pVDZ scf=tight maxdisk=180GB geom=allcheck
 --------------------------------------------------------

 Structure from the checkpoint file:  "SET_328_BBB212_conf1.geo_300_135.chk"
 -----------------------------------------
 SET_328_BBB212_conf1.geo_300_135 geometry
 -----------------------------------------
 Charge = -1 Multiplicity = 1

                         Standard orientation:
 ---------------------------------------------------------------------
 Center     Atomic      Atomic             Coordinates (Angstroms)
 Number     Number       Type             X           Y           Z
 ---------------------------------------------------------------------
      1          6           0        0.100788    2.387704    1.205802
      2          1           0        1.013629    2.988402    1.167554
      3          1           0        0.105799    1.827088    2.144489
      4          1           0       -0.752524    3.072721    1.222539
      5          6           0        0.053489    1.450312   -0.018024
      6          6           0        0.009914    2.344300   -1.274511
      7          1           0        0.001441    1.754283   -2.194700
      8          1           0        0.875233    3.013585   -1.309607
      9          1           0       -0.893125    2.960081   -1.258659
     10          6           0       -1.217693    0.581722   -0.010660
     11          6           0       -1.384261   -0.418341   -0.981199
     12          6           0       -2.525647   -1.213292   -1.037872
     13          6           0       -3.549360   -1.029549   -0.098778
     14          8           0       -4.693050   -1.777590   -0.085650
     15          1           0       -4.658697   -2.435531   -0.802187
     16          6           0       -3.407681   -0.041829    0.878481
     17          6           0       -2.257588    0.749399    0.912619
     18          1           0       -2.177801    1.507618    1.682956
     19          1           0       -4.199831    0.097922    1.607420
     20          1           0       -2.619849   -1.977601   -1.804488
     21          1           0       -0.593758   -0.588595   -1.706582
     22          6           0        1.300404    0.553567   -0.000619
     23          6           0        2.320107    0.620454   -0.961559
     24          1           0        2.230559    1.323089   -1.785162
     25          6           0        3.453579   -0.189502   -0.903306
     26          1           0        4.217165   -0.104982   -1.673795
     27          6           0        3.665497   -1.149278    0.141183
     28          8           0        4.706460   -1.906458    0.205179
     29          6           0        2.606580   -1.196263    1.114015
     30          1           0        2.705789   -1.905783    1.933676
     31          6           0        1.485406   -0.380641    1.037197
     32          1           0        0.717496   -0.472487    1.803702
 ---------------------------------------------------------------------

 SCF Done:  E(RHF) =  -726.570350227     A.U. after   17 cycles
