 Gaussian 16, Revision B.01,

 -----------------------------------------------------------
 #p b3lyp/6-31G(d) opt freq scrf=(iefpcm,read,solvent=water)
 -----------------------------------------------------------

 -----------------------------------------
 SET_328_BBB286_conf1.geo_000_150 geometry
 -----------------------------------------
 Symbolic Z-matrix:
 Charge =  1 Multiplicity = 1

 SCF Done:  E(RB3LYP) =  -995.001055176     A.U. after   13 cycles
 SCF Done:  E(RB3LYP) =  -995.051076112     A.U. after   11 cycles
 SCF Done:  E(RB3LYP) =  -995.082640364     A.U. after   11 cycles
 SCF Done:  E(RB3LYP) =  -995.087191228     A.U. after   11 cycles
 SCF Done:  E(RB3LYP) =  -995.091993953     A.U. after   11 cycles
 SCF Done:  E(RB3LYP) =  -995.092969714     A.U. after   10 cycles
 SCF Done:  E(RB3LYP) =  -995.093447367     A.U. after   10 cycles
 SCF Done:  E(RB3LYP) =  -995.093479868     A.U. after   10 cycles
 SCF Done:  E(RB3LYP) =  -995.093631997     A.U. after    9 cycles
 SCF Done:  E(RB3LYP) =  -995.093725155     A.U. after    9 cycles
 SCF Done:  E(RB3LYP) =  -995.093531786     A.U. after   10 cycles
 SCF Done:  E(RB3LYP) =  -995.092283115     A.U. after   11 cycles
 SCF Done:  E(RB3LYP) =  -995.093748025     A.U. after    4 cycles
 SCF Done:  E(RB3LYP) =  -995.093591921     A.U. after   10 cycles
 SCF Done:  E(RB3LYP) =  -995.093737464     A.U. after   10 cycles
 SCF Done:  E(RB3LYP) =  -995.093734382     A.U. after    7 cycles
 Optimization completed.
    -- Stationary point found.
 Normal termination of Gaussian 16 at Sun Jul 11 17:13:31 2021.

 --------------------------------------------------------------------
 #P Geom=AllCheck Guess=TCheck SCRF=Check GenChk RB3LYP/6-31G(d) Freq
 --------------------------------------------------------------------

 Structure from the checkpoint file:  "SET_328_BBB286_conf1.geo_000_150.chk"
 -----------------------------------------
 SET_328_BBB286_conf1.geo_000_150 geometry
 -----------------------------------------
 Charge =  1 Multiplicity = 1

 SCF Done:  E(RB3LYP) =  -995.093734382     A.U. after    1 cycles

  Exact polarizability: 361.054   2.927 316.575 -22.659 -12.858 185.569
 Approx polarizability: 374.692   5.570 368.572 -24.155 -17.962 202.631

                      1                      2                      3
                      A                      A                      A
 Frequencies --     19.4188                34.5688                46.1280
 Red. masses --      4.3121                 4.2696                 4.4779
 Frc consts  --      0.0010                 0.0030                 0.0056
 IR Inten    --      0.8789                 3.2878                 7.5531

                      4                      5                      6
                      A                      A                      A
 Frequencies --     58.9192                97.3971               103.3346
 Red. masses --      5.9134                 1.2607                 3.5833
 Frc consts  --      0.0121                 0.0070                 0.0225
 IR Inten    --     11.7220                 0.2817                 2.9809

                      7                      8                      9
                      A                      A                      A
 Frequencies --    128.5715               138.8406               145.5502
 Red. masses --      3.4462                 3.3859                 2.4410
 Frc consts  --      0.0336                 0.0385                 0.0305
 IR Inten    --      1.8081                 1.0837                 3.6012

                     10                     11                     12
                      A                      A                      A
 Frequencies --    165.1198               202.6069               229.0144
 Red. masses --      3.9272                 5.2098                 1.7154
 Frc consts  --      0.0631                 0.1260                 0.0530
 IR Inten    --      0.4558                33.6283                 0.5406

                     13                     14                     15
                      A                      A                      A
 Frequencies --    242.0661               247.0742               259.4865
 Red. masses --      2.0477                 3.8748                 2.9654
 Frc consts  --      0.0707                 0.1394                 0.1176
 IR Inten    --      1.0827                 1.3347                 1.5714

                     16                     17                     18
                      A                      A                      A
 Frequencies --    298.3177               308.1617               326.5715
 Red. masses --      2.7969                 2.5311                 4.8296
 Frc consts  --      0.1467                 0.1416                 0.3035
 IR Inten    --     12.4934                 0.9419                 9.1703

                     19                     20                     21
                      A                      A                      A
 Frequencies --    345.0268               384.6228               395.7786
 Red. masses --      2.1768                 3.0525                 2.4672
 Frc consts  --      0.1527                 0.2661                 0.2277
 IR Inten    --      2.5359                 8.5926                 4.7242

                     22                     23                     24
                      A                      A                      A
 Frequencies --    409.1502               421.7799               437.4440
 Red. masses --      3.5989                 2.8512                 2.4615
 Frc consts  --      0.3550                 0.2988                 0.2775
 IR Inten    --      1.3786                 0.8821                 8.2865

                     25                     26                     27
                      A                      A                      A
 Frequencies --    446.2771               456.4784               544.1464
 Red. masses --      3.0997                 4.3395                 5.7405
 Frc consts  --      0.3637                 0.5328                 1.0015
 IR Inten    --      1.7135                 3.8548                 3.5280

                     28                     29                     30
                      A                      A                      A
 Frequencies --    549.1104               564.5628               580.9532
 Red. masses --      2.1507                 1.6127                 3.9109
 Frc consts  --      0.3821                 0.3028                 0.7777
 IR Inten    --     76.9133               130.3423                 3.2759

                     31                     32                     33
                      A                      A                      A
 Frequencies --    586.2828               606.8157               619.6071
 Red. masses --      4.1977                 3.1638                 3.8146
 Frc consts  --      0.8501                 0.6864                 0.8628
 IR Inten    --      8.3876                 7.0396                 6.4932

                     34                     35                     36
                      A                      A                      A
 Frequencies --    642.9154               655.2069               713.6715
 Red. masses --      4.8167                 3.9685                 3.8064
 Frc consts  --      1.1730                 1.0038                 1.1422
 IR Inten    --      1.4698                 3.7010                13.8083

                     37                     38                     39
                      A                      A                      A
 Frequencies --    749.7126               760.3246               760.6620
 Red. masses --      3.9800                 2.5681                 4.8694
 Frc consts  --      1.3180                 0.8747                 1.6600
 IR Inten    --      0.8154                 0.8925                 6.4315

                     40                     41                     42
                      A                      A                      A
 Frequencies --    772.4665               785.0387               793.9854
 Red. masses --      1.5234                 2.8793                 5.1647
 Frc consts  --      0.5356                 1.0455                 1.9183
 IR Inten    --     81.5589                 2.8955                 3.1443

                     43                     44                     45
                      A                      A                      A
 Frequencies --    794.6285               833.2162               845.6285
 Red. masses --      5.5111                 3.2841                 3.0538
 Frc consts  --      2.0503                 1.3433                 1.2866
 IR Inten    --     46.3778                29.5705                 1.7223

                     46                     47                     48
                      A                      A                      A
 Frequencies --    868.2938               876.2150               891.1906
 Red. masses --      1.5041                 1.4619                 2.2723
 Frc consts  --      0.6681                 0.6613                 1.0633
 IR Inten    --      0.1562                 0.0296                 3.0199

                     49                     50                     51
                      A                      A                      A
 Frequencies --    904.5717               931.7289               956.8752
 Red. masses --      3.1786                 2.4707                 2.2856
 Frc consts  --      1.5324                 1.2637                 1.2330
 IR Inten    --     57.7245                 2.4788                12.2469

                     52                     53                     54
                      A                      A                      A
 Frequencies --    962.2600               962.8609              1000.9966
 Red. masses --      1.3300                 2.1703                 1.2582
 Frc consts  --      0.7256                 1.1855                 0.7428
 IR Inten    --      1.0217                 7.1607                 0.0195

                     55                     56                     57
                      A                      A                      A
 Frequencies --   1003.2606              1023.2912              1027.6522
 Red. masses --      2.0345                 3.0267                 3.0102
 Frc consts  --      1.2065                 1.8673                 1.8730
 IR Inten    --     33.3477                11.5322                10.6420

                     58                     59                     60
                      A                      A                      A
 Frequencies --   1030.0868              1051.5764              1072.0721
 Red. masses --      2.3255                 2.2311                 2.4437
 Frc consts  --      1.4539                 1.4536                 1.6548
 IR Inten    --     13.8129                19.6032                62.9664

                     61                     62                     63
                      A                      A                      A
 Frequencies --   1080.7947              1098.8173              1108.6602
 Red. masses --      3.5184                 1.9140                 1.5995
 Frc consts  --      2.4215                 1.3616                 1.1584
 IR Inten    --     12.5805                 0.9200                13.4982

                     64                     65                     66
                      A                      A                      A
 Frequencies --   1141.0143              1144.5209              1151.8084
 Red. masses --      1.7536                 2.2118                 1.4269
 Frc consts  --      1.3452                 1.7070                 1.1153
 IR Inten    --      5.7845                46.0896                 7.3173

                     67                     68                     69
                      A                      A                      A
 Frequencies --   1157.5751              1158.2407              1162.6250
 Red. masses --      1.2985                 1.2542                 1.7973
 Frc consts  --      1.0252                 0.9913                 1.4314
 IR Inten    --      6.9535                 3.7871                24.5995

                     70                     71                     72
                      A                      A                      A
 Frequencies --   1181.9350              1193.2125              1193.9752
 Red. masses --      1.5247                 1.2954                 1.2189
 Frc consts  --      1.2549                 1.0866                 1.0238
 IR Inten    --     18.1116                62.6882                19.3153

                     73                     74                     75
                      A                      A                      A
 Frequencies --   1206.8416              1249.2367              1269.3661
 Red. masses --      1.2643                 2.0444                 1.7567
 Frc consts  --      1.0850                 1.8798                 1.6677
 IR Inten    --      3.2013               199.5346                 6.4843

                     76                     77                     78
                      A                      A                      A
 Frequencies --   1292.7757              1299.3186              1301.6852
 Red. masses --      1.5339                 1.2730                 1.2682
 Frc consts  --      1.5104                 1.2662                 1.2660
 IR Inten    --      4.2826                18.9888                19.2625

                     79                     80                     81
                      A                      A                      A
 Frequencies --   1316.9287              1337.3506              1341.2245
 Red. masses --      1.3754                 1.4647                 3.7727
 Frc consts  --      1.4054                 1.5434                 3.9986
 IR Inten    --     88.6071                34.2729                69.4215

                     82                     83                     84
                      A                      A                      A
 Frequencies --   1360.9573              1373.9887              1383.7060
 Red. masses --      1.9374                 1.4263                 1.3208
 Frc consts  --      2.1142                 1.5865                 1.4899
 IR Inten    --     20.2842                 6.3608                 4.4776

                     85                     86                     87
                      A                      A                      A
 Frequencies --   1396.8220              1405.0743              1406.4750
 Red. masses --      1.3589                 2.9266                 2.7760
 Frc consts  --      1.5622                 3.4042                 3.2354
 IR Inten    --     23.8247                13.5964                10.8031

                     88                     89                     90
                      A                      A                      A
 Frequencies --   1406.9465              1414.0583              1419.4929
 Red. masses --      1.6541                 1.3631                 1.4336
 Frc consts  --      1.9292                 1.6059                 1.7020
 IR Inten    --     38.3649                 4.8695                 9.9293

                     91                     92                     93
                      A                      A                      A
 Frequencies --   1423.4410              1427.3245              1440.0224
 Red. masses --      1.3520                 1.4061                 2.9033
 Frc consts  --      1.6140                 1.6878                 3.5471
 IR Inten    --      7.3917                19.7132                70.1134

                     94                     95                     96
                      A                      A                      A
 Frequencies --   1445.6151              1460.2834              1468.6123
 Red. masses --      2.4072                 1.3387                 1.2576
 Frc consts  --      2.9639                 1.6819                 1.5981
 IR Inten    --     18.2085                23.1200                16.1990

                     97                     98                     99
                      A                      A                      A
 Frequencies --   1477.2279              1490.5282              1498.5495
 Red. masses --      1.5662                 1.1696                 1.1368
 Frc consts  --      2.0137                 1.5310                 1.5041
 IR Inten    --      9.7597                29.7796                48.2328

                    100                    101                    102
                      A                      A                      A
 Frequencies --   1500.9939              1505.3049              1511.2601
 Red. masses --      1.0751                 1.1463                 1.0805
 Frc consts  --      1.4272                 1.5304                 1.4540
 IR Inten    --     25.1717                91.0962                15.7865

                    103                    104                    105
                      A                      A                      A
 Frequencies --   1514.1785              1521.7603              1523.8413
 Red. masses --      1.9231                 1.0823                 1.3513
 Frc consts  --      2.5978                 1.4768                 1.8488
 IR Inten    --     59.4236                16.1726                 2.5966

                    106                    107                    108
                      A                      A                      A
 Frequencies --   1528.0220              1538.8915              1545.1066
 Red. masses --      1.1994                 1.2796                 1.8049
 Frc consts  --      1.6500                 1.7854                 2.5387
 IR Inten    --     98.2138                63.9579                31.4700

                    109                    110                    111
                      A                      A                      A
 Frequencies --   1560.0384              1573.4090              1626.5281
 Red. masses --      1.1144                 2.0544                 6.4750
 Frc consts  --      1.5980                 2.9966                10.0929
 IR Inten    --     38.8915               531.4981                17.6774

                    112                    113                    114
                      A                      A                      A
 Frequencies --   1672.8549              1706.0763              3055.1307
 Red. masses --      6.8933                 9.0819                 1.0698
 Frc consts  --     11.3656                15.5748                 5.8834
 IR Inten    --     11.6877               453.2651                44.1559

                    115                    116                    117
                      A                      A                      A
 Frequencies --   3074.1603              3075.0184              3080.7700
 Red. masses --      1.0635                 1.0823                 1.0366
 Frc consts  --      5.9215                 6.0299                 5.7966
 IR Inten    --     29.8507                12.1808                70.1911

                    118                    119                    120
                      A                      A                      A
 Frequencies --   3090.6722              3093.1497              3100.0522
 Red. masses --      1.0707                 1.0692                 1.0669
 Frc consts  --      6.0260                 6.0273                 6.0410
 IR Inten    --     80.2520                17.7592                30.9010

                    121                    122                    123
                      A                      A                      A
 Frequencies --   3116.7515              3118.4611              3122.4367
 Red. masses --      1.0976                 1.0987                 1.0836
 Frc consts  --      6.2819                 6.2951                 6.2248
 IR Inten    --     29.2608                36.8783                30.2015

                    124                    125                    126
                      A                      A                      A
 Frequencies --   3125.1446              3126.9439              3135.7637
 Red. masses --      1.0536                 1.0679                 1.1022
 Frc consts  --      6.0630                 6.1519                 6.3857
 IR Inten    --     11.6028                26.9505                30.4683

                    127                    128                    129
                      A                      A                      A
 Frequencies --   3150.4403              3155.4007              3164.9467
 Red. masses --      1.1041                 1.0961                 1.0926
 Frc consts  --      6.4567                 6.4300                 6.4484
 IR Inten    --     20.8166                11.7516                22.7897

                    130                    131                    132
                      A                      A                      A
 Frequencies --   3204.2546              3208.6523              3213.3309
 Red. masses --      1.1030                 1.0873                 1.1086
 Frc consts  --      6.6721                 6.5956                 6.7445
 IR Inten    --      5.2031                 8.9448                 4.7327

                    133                    134                    135
                      A                      A                      A
 Frequencies --   3221.9854              3239.5985              3244.0861
 Red. masses --      1.0915                 1.1062                 1.0941
 Frc consts  --      6.6761                 6.8404                 6.7841
 IR Inten    --     33.1213                 9.4835                21.1652

                    136                    137                    138
                      A                      A                      A
 Frequencies --   3249.6937              3395.2449              3590.7876
 Red. masses --      1.0937                 1.0784                 1.0785
 Frc consts  --      6.8050                 7.3245                 8.1933
 IR Inten    --     10.0828               143.7400               103.3304

 - Thermochemistry -
 -------------------
 Temperature   298.150 Kelvin.  Pressure   1.00000 Atm.
 Atom     1 has atomic number  6 and mass  12.00000

 Molecular mass:   313.20284 amu.
 Principal axes and moments of inertia in atomic units:
                           1         2         3
     Eigenvalues --  2868.84615********************
           X            0.99999  -0.00488  -0.00096
           Y            0.00488   0.99999   0.00013
           Z            0.00096  -0.00013   1.00000
 This molecule is an asymmetric top.
 Rotational symmetry number  1.
 Warning -- assumption of classical behavior for rotation
           may cause significant error
 Rotational temperatures (Kelvin)      0.03019     0.00608     0.00553
 Rotational constants (GHZ):           0.62908     0.12665     0.11513
 Zero-point vibrational energy    1114547.2 (Joules/Mol)
                                  266.38318 (Kcal/Mol)
 Warning -- explicit consideration of  33 degrees of freedom as
           vibrations may cause significant error
 Vibrational temperatures:     27.94    49.74    66.37    84.77   140.13
          (Kelvin)            148.68   184.99   199.76   209.41   237.57
                              291.51   329.50   348.28   355.48   373.34
                              429.21   443.38   469.86   496.42   553.39
                              569.44   588.68   606.85   629.38   642.09
                              656.77   782.91   790.05   812.28   835.86
                              843.53   873.07   891.48   925.01   942.70
                             1026.81  1078.67  1093.94  1094.42  1111.41
                             1129.50  1142.37  1143.29  1198.81  1216.67
                             1249.28  1260.68  1282.22  1301.48  1340.55
                             1376.73  1384.48  1385.34  1440.21  1443.47
                             1472.29  1478.56  1482.07  1512.98  1542.47
                             1555.02  1580.95  1595.11  1641.67  1646.71
                             1657.20  1665.49  1666.45  1672.76  1700.54
                             1716.77  1717.86  1736.38  1797.37  1826.33
                             1860.02  1869.43  1872.83  1894.77  1924.15
                             1929.72  1958.11  1976.86  1990.84  2009.72
                             2021.59  2023.60  2024.28  2034.51  2042.33
                             2048.01  2053.60  2071.87  2079.92  2101.02
                             2113.01  2125.40  2144.54  2156.08  2159.60
                             2165.80  2174.37  2178.57  2189.47  2192.47
                             2198.48  2214.12  2223.06  2244.55  2263.78
                             2340.21  2406.87  2454.66  4395.65  4423.03
                             4424.27  4432.54  4446.79  4450.35  4460.28
                             4484.31  4486.77  4492.49  4496.39  4498.97
                             4511.66  4532.78  4539.92  4553.65  4610.21
                             4616.54  4623.27  4635.72  4661.06  4667.52
                             4675.58  4885.00  5166.34

 Zero-point correction=                           0.424509 (Hartree/Particle)
 Thermal correction to Energy=                    0.444493
 Thermal correction to Enthalpy=                  0.445437
 Thermal correction to Gibbs Free Energy=         0.375302
 Sum of electronic and zero-point Energies=           -994.669226
 Sum of electronic and thermal Energies=              -994.649241
 Sum of electronic and thermal Enthalpies=            -994.648297
 Sum of electronic and thermal Free Energies=         -994.718432

                     E (Thermal)             CV                S
                      KCal/Mol        Cal/Mol-Kelvin    Cal/Mol-Kelvin
 Total                  278.924             80.238            147.612
 Electronic               0.000              0.000              0.000
 Translational            0.889              2.981             43.121
 Rotational               0.889              2.981             34.815
 Vibrational            277.146             74.277             69.676
 Vibration     1          0.593              1.986              6.693
 Vibration     2          0.594              1.983              5.548
 Vibration     3          0.595              1.979              4.977
 Vibration     4          0.596              1.974              4.493
 Vibration     5          0.603              1.951              3.506
 Vibration     6          0.605              1.947              3.390
 Vibration     7          0.611              1.925              2.967
 Vibration     8          0.614              1.915              2.820
 Vibration     9          0.617              1.907              2.730
 Vibration    10          0.624              1.885              2.490
 Vibration    11          0.639              1.836              2.109
 Vibration    12          0.652              1.797              1.887
 Vibration    13          0.658              1.776              1.788
 Vibration    14          0.661              1.768              1.751
 Vibration    15          0.668              1.747              1.665
 Vibration    16          0.691              1.677              1.426
 Vibration    17          0.698              1.658              1.372
 Vibration    18          0.710              1.622              1.277
 Vibration    19          0.723              1.585              1.189
 Vibration    20          0.754              1.503              1.021
 Vibration    21          0.763              1.479              0.978
 Vibration    22          0.774              1.450              0.930
 Vibration    23          0.784              1.423              0.886
 Vibration    24          0.798              1.389              0.835
 Vibration    25          0.806              1.369              0.807
 Vibration    26          0.815              1.347              0.776
 Vibration    27          0.899              1.153              0.556
 Vibration    28          0.904              1.142              0.546
 Vibration    29          0.920              1.108              0.515
 Vibration    30          0.938              1.072              0.484
 Vibration    31          0.943              1.061              0.474
 Vibration    32          0.966              1.017              0.438
 Vibration    33          0.980              0.991              0.417

                           ! Non-Optimized Parameters !
 Normal termination of Gaussian 16 at Sun Jul 11 17:39:39 2021.

 ----------------------------------------------------------------------
 #p b3lyp/6-31G(d) scrf=(iefpcm,read,solvent=water) geom=allcheck guess
 =read
 ----------------------------------------------------------------------

 Structure from the checkpoint file:  "SET_328_BBB286_conf1.geo_000_150.chk"
 -----------------------------------------
 SET_328_BBB286_conf1.geo_000_150 geometry
 -----------------------------------------
 Charge =  1 Multiplicity = 1

 SCF Done:  E(RB3LYP) =  -995.093734382     A.U. after    1 cycles
 Normal termination of Gaussian 16 at Sun Jul 11 17:39:58 2021.

 -----------------------------
 #p B3LYP/6-31G* geom=allcheck
 -----------------------------

 Structure from the checkpoint file:  "SET_328_BBB286_conf1.geo_000_150.chk"
 -----------------------------------------
 SET_328_BBB286_conf1.geo_000_150 geometry
 -----------------------------------------
 Charge =  1 Multiplicity = 1

 SCF Done:  E(RB3LYP) =  -995.000944919     A.U. after   16 cycles
 Normal termination of Gaussian 16 at Sun Jul 11 17:41:29 2021.
 Gaussian 16:  ES64L-G16RevB.01 20-Dec-2017

 --------------------------------------------------------
 #p mp2/aug-cc-pVDZ scf=tight maxdisk=180GB geom=allcheck
 --------------------------------------------------------

 Structure from the checkpoint file:  "SET_328_BBB286_conf1.geo_000_150.chk"
 -----------------------------------------
 SET_328_BBB286_conf1.geo_000_150 geometry
 -----------------------------------------
 Charge =  1 Multiplicity = 1

                         Standard orientation:
 ---------------------------------------------------------------------
 Center     Atomic      Atomic             Coordinates (Angstroms)
 Number     Number       Type             X           Y           Z
 ---------------------------------------------------------------------
      1          6           0       -3.439486    3.023228   -0.309853
      2          1           0       -4.267424    3.177212   -1.004349
      3          1           0       -2.563252    3.562612   -0.663761
      4          1           0       -3.723585    3.393147    0.679544
      5          7           0       -3.094689    1.613892   -0.253298
      6          6           0       -3.931289    0.550662   -0.021992
      7          6           0       -3.115637   -0.607430   -0.010572
      8          6           0       -3.700073   -1.870542    0.195980
      9          6           0       -5.070031   -1.933754    0.385731
     10          6           0       -5.869997   -0.763986    0.375134
     11          6           0       -5.321437    0.491918    0.173105
     12          1           0       -5.936532    1.382855    0.166792
     13          1           0       -6.940043   -0.855362    0.528204
     14          1           0       -5.546074   -2.895289    0.546433
     15          1           0       -3.082886   -2.759599    0.203460
     16          7           0       -1.814005    1.219014   -0.379575
     17          6           0       -1.798168   -0.106027   -0.242767
     18          6           0       -0.542116   -0.880536   -0.344939
     19          8           0       -0.526775   -2.110128   -0.186060
     20          7           0        0.580729   -0.161838   -0.604426
     21          1           0        0.456481    0.803537   -0.887764
     22          6           0        1.844904   -0.835693   -0.902664
     23          6           0        2.486474   -1.514152    0.338013
     24          1           0        1.692354   -1.827156    1.017154
     25          1           0        2.964647   -2.435131   -0.006878
     26          1           0        1.597705   -1.649805   -1.590003
     27          6           0        2.824051    0.107102   -1.631854
     28          1           0        2.273005    0.831566   -2.237377
     29          1           0        3.393956   -0.495169   -2.343444
     30          6           0        3.827632    0.878565   -0.760447
     31          1           0        4.608259    1.267839   -1.416617
     32          6           0        3.297060    2.034569    0.101267
     33          1           0        2.750476    2.719220   -0.553733
     34          1           0        4.165941    2.589920    0.473939
     35          6           0        2.419909    1.600196    1.284265
     36          1           0        1.422783    1.331504    0.936410
     37          1           0        2.296007    2.446702    1.967056
     38          6           0        3.023209    0.415125    2.046715
     39          1           0        2.287959   -0.011991    2.734333
     40          1           0        3.863717    0.754900    2.664403
     41          6           0        3.530677   -0.713061    1.135341
     42          1           0        4.110709   -1.415362    1.737117
     43          7           0        4.538464   -0.101950    0.163883
     44          6           0        5.368889   -1.114018   -0.560339
     45          1           0        5.908017   -1.700949    0.181279
     46          1           0        6.067007   -0.578397   -1.201838
     47          1           0        4.730069   -1.759062   -1.155689
     48          1           0        5.203987    0.446460    0.726974
 ---------------------------------------------------------------------

 SCF Done:  E(RHF) =  -988.767707089     A.U. after   17 cycles
 E2 =    -0.3425990021D+01 EUMP2 =    -0.99219369710957D+03

 The electronic state is 1-A.
 Alpha  occ. eigenvalues --  -20.62771 -15.84153 -15.73281 -15.71093 -15.69642
 Alpha  occ. eigenvalues --  -11.46085 -11.44641 -11.44140 -11.44038 -11.40996
 Alpha  occ. eigenvalues --  -11.38623 -11.38103 -11.37569 -11.36975 -11.36181
 Alpha  occ. eigenvalues --  -11.36167 -11.36120 -11.36043 -11.32245 -11.32008
 Alpha  occ. eigenvalues --  -11.31992 -11.31892 -11.30807  -1.48364  -1.47890
 Alpha  occ. eigenvalues --   -1.46926  -1.34775  -1.24668  -1.23134  -1.22694
 Alpha  occ. eigenvalues --   -1.22108  -1.19069  -1.12490  -1.11392  -1.09603
 Alpha  occ. eigenvalues --   -1.08077  -1.06245  -1.03092  -0.99591  -0.97165
 Alpha  occ. eigenvalues --   -0.95093  -0.92854  -0.90561  -0.89462  -0.87524
 Alpha  occ. eigenvalues --   -0.84146  -0.83661  -0.81095  -0.80880  -0.79948
 Alpha  occ. eigenvalues --   -0.77625  -0.75687  -0.74748  -0.74595  -0.74209
 Alpha  occ. eigenvalues --   -0.74056  -0.73583  -0.72534  -0.71460  -0.71223
 Alpha  occ. eigenvalues --   -0.70503  -0.69788  -0.68335  -0.68097  -0.67508
 Alpha  occ. eigenvalues --   -0.66131  -0.65388  -0.64471  -0.64324  -0.64196
 Alpha  occ. eigenvalues --   -0.62000  -0.61735  -0.60113  -0.59669  -0.59379
 Alpha  occ. eigenvalues --   -0.58792  -0.57319  -0.56469  -0.55375  -0.52446
 Alpha  occ. eigenvalues --   -0.49872  -0.47447  -0.40073  -0.37845
 Alpha virt. eigenvalues --   -0.07809  -0.05770  -0.05517  -0.04898  -0.03578
 Alpha virt. eigenvalues --   -0.03440  -0.03286  -0.03007  -0.02410  -0.01690
 Alpha virt. eigenvalues --   -0.01408  -0.01101  -0.00665  -0.00483  -0.00288

 Mulliken charges:
               1
     1  C    0.850407
     2  H   -0.161750
     3  H   -0.237220
     4  H   -0.052510
     5  N   -0.694578
     6  C   -0.095495
     7  C    0.541561
     8  C    1.282600
     9  C    0.243976
    10  C    0.470741
    11  C    0.968145
    12  H   -0.577940
    13  H   -0.460857
    14  H   -0.481963
    15  H   -0.531738
    16  N   -1.027256
    17  C    0.301154
    18  C    0.272661
    19  O   -0.848968
    20  N    0.370015
    21  H   -0.089900
    22  C   -0.154755
    23  C    0.567208
    24  H   -0.325370
    25  H   -0.010371
    26  H   -0.474984
    27  C    0.635983
    28  H   -0.311804
    29  H   -0.005216
    30  C    0.477296
    31  H   -0.386074
    32  C    0.585270
    33  H   -0.161026
    34  H   -0.082427
    35  C    0.623345
    36  H   -0.208103
    37  H   -0.147733
    38  C    0.581284
    39  H   -0.145351
    40  H   -0.098974
    41  C    0.615430
    42  H   -0.398165
    43  N   -0.975339
    44  C    0.760461
    45  H   -0.095610
    46  H   -0.071740
    47  H   -0.068609
    48  H    0.234290
 Sum of Mulliken charges =   1.00000

 Dipole moment (field-independent basis, Debye):
    X=             15.2139    Y=              3.7397    Z=              0.0012  Tot=             15.6668
 Quadrupole moment (field-independent basis, Debye-Ang):
   XX=            -18.4791   YY=           -122.5868   ZZ=           -130.1705
   XY=            -10.7067   XZ=             -1.1837   YZ=             -1.5768

 Normal termination of Gaussian 16 at Sun Jul 11 19:17:43 2021.
