 Gaussian 16, Revision B.01,

 -----------------------------------------------------------
 #p b3lyp/6-31G(d) opt freq scrf=(iefpcm,read,solvent=water)
 -----------------------------------------------------------

 -----------------------------------------
 SET_328_BBB299_conf1.geo_195_180 geometry
 -----------------------------------------
 Symbolic Z-matrix:
 Charge = -1 Multiplicity = 1

 SCF Done:  E(RB3LYP) =  -495.530825113     A.U. after   13 cycles
 SCF Done:  E(RB3LYP) =  -495.572938042     A.U. after   13 cycles
 SCF Done:  E(RB3LYP) =  -495.575230149     A.U. after   12 cycles
 SCF Done:  E(RB3LYP) =  -495.577393687     A.U. after   11 cycles
 SCF Done:  E(RB3LYP) =  -495.578498573     A.U. after   11 cycles
 SCF Done:  E(RB3LYP) =  -495.578510440     A.U. after   10 cycles
 SCF Done:  E(RB3LYP) =  -495.578528738     A.U. after    9 cycles
 SCF Done:  E(RB3LYP) =  -495.578550299     A.U. after    9 cycles
 SCF Done:  E(RB3LYP) =  -495.578565518     A.U. after    9 cycles
 SCF Done:  E(RB3LYP) =  -495.578568605     A.U. after    8 cycles
 Optimization completed.
    -- Stationary point found.
 Normal termination of Gaussian 16 at Sun Jul 11 16:13:18 2021.

 --------------------------------------------------------------------
 #P Geom=AllCheck Guess=TCheck SCRF=Check GenChk RB3LYP/6-31G(d) Freq
 --------------------------------------------------------------------

 Structure from the checkpoint file:  "SET_328_BBB299_conf1.geo_195_180.chk"
 -----------------------------------------
 SET_328_BBB299_conf1.geo_195_180 geometry
 -----------------------------------------
 Charge = -1 Multiplicity = 1

 SCF Done:  E(RB3LYP) =  -495.578568605     A.U. after    1 cycles

  Exact polarizability: 140.664   2.309 136.333  -0.720   0.471  42.256
 Approx polarizability: 160.601   5.831 168.276  -1.041   3.660  52.151

                      1                      2                      3
                      A                      A                      A
 Frequencies --     54.3728               126.2821               228.5802
 Red. masses --     11.6305                 5.3739                 8.2925
 Frc consts  --      0.0203                 0.0505                 0.2553
 IR Inten    --      0.6675                 1.1026                 2.8521

                      4                      5                      6
                      A                      A                      A
 Frequencies --    242.8557               350.3615               376.1643
 Red. masses --      4.9695                 6.5638                 1.9349
 Frc consts  --      0.1727                 0.4747                 0.1613
 IR Inten    --      1.3915                18.8345                91.1954

                      7                      8                      9
                      A                      A                      A
 Frequencies --    394.7548               452.5194               524.6091
 Red. masses --      2.0323                 3.8826                 3.8294
 Frc consts  --      0.1866                 0.4684                 0.6210
 IR Inten    --     79.3889                19.9616                13.2736

                     10                     11                     12
                      A                      A                      A
 Frequencies --    552.9394               577.9981               664.8716
 Red. masses --      5.1288                 6.0895                 6.8652
 Frc consts  --      0.9239                 1.1986                 1.7880
 IR Inten    --      3.0050                12.1309                31.9031

                     13                     14                     15
                      A                      A                      A
 Frequencies --    706.4347               766.5778               800.3461
 Red. masses --      4.5987                 1.4504                 5.1735
 Frc consts  --      1.3522                 0.5022                 1.9525
 IR Inten    --     18.5036                87.9139                49.2835

                     16                     17                     18
                      A                      A                      A
 Frequencies --    813.8096               860.3478               862.2827
 Red. masses --      4.2231                 6.6658                 1.6619
 Frc consts  --      1.6479                 2.9070                 0.7280
 IR Inten    --     24.7681                73.5970                 3.7866

                     19                     20                     21
                      A                      A                      A
 Frequencies --    957.2087               980.7472              1066.8718
 Red. masses --      1.3625                 1.2468                 2.3219
 Frc consts  --      0.7355                 0.7066                 1.5571
 IR Inten    --      2.2272                 1.4557                 7.7574

                     22                     23                     24
                      A                      A                      A
 Frequencies --   1103.5987              1163.1621              1179.7855
 Red. masses --      2.6212                 2.1661                 1.1091
 Frc consts  --      1.8809                 1.7266                 0.9095
 IR Inten    --     76.4258                49.4830                16.3079

                     25                     26                     27
                      A                      A                      A
 Frequencies --   1206.4929              1287.1509              1320.2885
 Red. masses --      1.3492                 3.3429                 1.7050
 Frc consts  --      1.1571                 3.2631                 1.7511
 IR Inten    --    121.1879               107.9071               117.7870

                     28                     29                     30
                      A                      A                      A
 Frequencies --   1372.2616              1395.1116              1486.5130
 Red. masses --      3.6700                 9.0038                 2.4480
 Frc consts  --      4.0718                10.3251                 3.1872
 IR Inten    --    119.4794               558.3416                84.9986

                     31                     32                     33
                      A                      A                      A
 Frequencies --   1534.5505              1633.0004              1651.2071
 Red. masses --      2.5020                 6.5043                 6.2141
 Frc consts  --      3.4713                10.2193                 9.9823
 IR Inten    --     29.1622               108.5103                73.7599

                     34                     35                     36
                      A                      A                      A
 Frequencies --   1665.8742              3187.8203              3201.1252
 Red. masses --      9.6767                 1.0878                 1.0886
 Frc consts  --     15.8220                 6.5131                 6.5722
 IR Inten    --    767.0694                20.1381                22.5361

                     37                     38                     39
                      A                      A                      A
 Frequencies --   3214.2395              3225.8233              3732.4730
 Red. masses --      1.0933                 1.0944                 1.0663
 Frc consts  --      6.6547                 6.7098                 8.7522
 IR Inten    --     39.2332                29.4120               143.5769

 - Thermochemistry -
 -------------------
 Temperature   298.150 Kelvin.  Pressure   1.00000 Atm.
 Atom     1 has atomic number  8 and mass  15.99491

 Molecular mass:   137.02387 amu.
 Principal axes and moments of inertia in atomic units:
                           1         2         3
     Eigenvalues --   780.082011497.082372215.97199
           X            0.99999   0.00313  -0.00074
           Y           -0.00313   0.99996  -0.00866
           Z            0.00071   0.00866   0.99996
 This molecule is an asymmetric top.
 Rotational symmetry number  1.
 Warning -- assumption of classical behavior for rotation
           may cause significant error
 Rotational temperatures (Kelvin)      0.11103     0.05786     0.03909
 Rotational constants (GHZ):           2.31353     1.20551     0.81442
 Zero-point vibrational energy     280652.4 (Joules/Mol)
                                   67.07753 (Kcal/Mol)
 Warning -- explicit consideration of  11 degrees of freedom as
           vibrations may cause significant error
 Vibrational temperatures:     78.23   181.69   328.88   349.42   504.09
          (Kelvin)            541.22   567.96   651.07   754.80   795.56
                              831.61   956.60  1016.40  1102.93  1151.52
                             1170.89  1237.85  1240.63  1377.21  1411.08
                             1534.99  1587.83  1673.53  1697.45  1735.87
                             1851.92  1899.60  1974.38  2007.25  2138.76
                             2207.88  2349.52  2375.72  2396.82  4586.56
                             4605.71  4624.57  4641.24  5370.20

 Zero-point correction=                           0.106895 (Hartree/Particle)
 Thermal correction to Energy=                    0.114939
 Thermal correction to Enthalpy=                  0.115883
 Thermal correction to Gibbs Free Energy=         0.073519
 Sum of electronic and zero-point Energies=           -495.471674
 Sum of electronic and thermal Energies=              -495.463630
 Sum of electronic and thermal Enthalpies=            -495.462685
 Sum of electronic and thermal Free Energies=         -495.505050

                     E (Thermal)             CV                S
                      KCal/Mol        Cal/Mol-Kelvin    Cal/Mol-Kelvin
 Total                   72.125             30.442             89.163
 Electronic               0.000              0.000              0.000
 Translational            0.889              2.981             40.657
 Rotational               0.889              2.981             29.338
 Vibrational             70.348             24.480             19.168
 Vibration     1          0.596              1.976              4.652
 Vibration     2          0.611              1.927              3.002
 Vibration     3          0.651              1.797              1.890
 Vibration     4          0.659              1.775              1.782
 Vibration     5          0.727              1.575              1.165
 Vibration     6          0.747              1.521              1.055
 Vibration     7          0.762              1.481              0.982
 Vibration     8          0.811              1.355              0.788
 Vibration     9          0.880              1.196              0.599
 Vibration    10          0.908              1.133              0.538
 Vibration    11          0.935              1.079              0.489

 Optimization completed.
    -- Stationary point found.
 Normal termination of Gaussian 16 at Sun Jul 11 16:14:47 2021.

 ----------------------------------------------------------------------
 #p b3lyp/6-31G(d) scrf=(iefpcm,read,solvent=water) geom=allcheck guess
 =read
 ----------------------------------------------------------------------

 Structure from the checkpoint file:  "SET_328_BBB299_conf1.geo_195_180.chk"
 -----------------------------------------
 SET_328_BBB299_conf1.geo_195_180 geometry
 -----------------------------------------
 Charge = -1 Multiplicity = 1

 SCF Done:  E(RB3LYP) =  -495.578568605     A.U. after    1 cycles
 Normal termination of Gaussian 16 at Sun Jul 11 16:14:51 2021.

 -----------------------------
 #p B3LYP/6-31G* geom=allcheck
 -----------------------------

 Structure from the checkpoint file:  "SET_328_BBB299_conf1.geo_195_180.chk"
 -----------------------------------------
 SET_328_BBB299_conf1.geo_195_180 geometry
 -----------------------------------------
 Charge = -1 Multiplicity = 1

 SCF Done:  E(RB3LYP) =  -495.454581633     A.U. after   16 cycles
 Normal termination of Gaussian 16 at Sun Jul 11 16:15:02 2021.
 Gaussian 16:  ES64L-G16RevB.01 20-Dec-2017

 --------------------------------------------------------
 #p mp2/aug-cc-pVDZ scf=tight maxdisk=180GB geom=allcheck
 --------------------------------------------------------

 Structure from the checkpoint file:  "SET_328_BBB299_conf1.geo_195_180.chk"
 -----------------------------------------
 SET_328_BBB299_conf1.geo_195_180 geometry
 -----------------------------------------
 Charge = -1 Multiplicity = 1

                         Standard orientation:
 ---------------------------------------------------------------------
 Center     Atomic      Atomic             Coordinates (Angstroms)
 Number     Number       Type             X           Y           Z
 ---------------------------------------------------------------------
      1          8           0        2.320802   -1.348573   -0.442551
      2          6           0        1.802631   -0.292363    0.021055
      3          8           0        2.426412    0.682891    0.520993
      4          6           0        0.273668   -0.234123    0.001874
      5          6           0       -0.479542    0.957726   -0.069649
      6          8           0        0.165492    2.154264   -0.193701
      7          1           0       -0.500199    2.856068   -0.285906
      8          6           0       -1.881583    0.908687   -0.045869
      9          1           0       -2.445602    1.834865   -0.106011
     10          6           0       -2.550272   -0.309035    0.053313
     11          1           0       -3.635563   -0.321935    0.075358
     12          6           0       -1.823712   -1.499735    0.116300
     13          1           0       -2.333580   -2.454833    0.188721
     14          6           0       -0.431819   -1.442853    0.079536
     15          1           0        0.157061   -2.352645    0.110541
 ---------------------------------------------------------------------

 SCF Done:  E(RHF) =  -492.673944116     A.U. after   16 cycles
 E2 =    -0.1542210639D+01 EUMP2 =    -0.49421615475506D+03

 The electronic state is 1-A.
 Alpha  occ. eigenvalues --  -20.47123 -20.30863 -20.30651 -11.18549 -11.15946
 Alpha  occ. eigenvalues --  -11.13215 -11.12104 -11.11341 -11.11136 -11.09918
 Alpha  occ. eigenvalues --   -1.27880  -1.17680  -1.07169  -1.02174  -0.89578
 Alpha  occ. eigenvalues --   -0.88057  -0.72131  -0.70742  -0.60691  -0.59134
 Alpha  occ. eigenvalues --   -0.53438  -0.51345  -0.47314  -0.46292  -0.45804
 Alpha  occ. eigenvalues --   -0.43324  -0.40415  -0.39333  -0.37343  -0.36625
 Alpha  occ. eigenvalues --   -0.34568  -0.22509  -0.21587  -0.20281  -0.19387
 Alpha  occ. eigenvalues --   -0.18360
 Alpha virt. eigenvalues --    0.10780   0.11521   0.12612   0.14744   0.15929
 Alpha virt. eigenvalues --    0.20683   0.21358   0.21564   0.22000   0.22482
 Alpha virt. eigenvalues --    0.22511   0.22833   0.23294   0.24161   0.24770

 Mulliken charges:
               1
     1  O   -0.971946
     2  C    0.791825
     3  O   -0.951121
     4  C    0.581385
     5  C    0.998440
     6  O   -0.931051
     7  H    0.169320
     8  C    0.562907
     9  H   -0.661828
    10  C    0.217414
    11  H   -0.453838
    12  C    0.266437
    13  H   -0.453981
    14  C    0.439947
    15  H   -0.603911
 Sum of Mulliken charges =  -1.00000

 Dipole moment (field-independent basis, Debye):
    X=            -11.1959    Y=              1.9931    Z=             -0.2677  Tot=             11.3750
 Quadrupole moment (field-independent basis, Debye-Ang):
   XX=            -91.6671   YY=            -62.0409   ZZ=            -65.3002
   XY=             -0.5304   XZ=             -0.3674   YZ=             -4.5565

 Normal termination of Gaussian 16 at Sun Jul 11 16:16:22 2021.
