 Gaussian 16, Revision B.01,

 -----------------------------------------------------------
 #p b3lyp/6-31G(d) opt freq scrf=(iefpcm,read,solvent=water)
 -----------------------------------------------------------

 -----------------------------------------
 SET_328_BBB315_conf1.geo_285_285 geometry
 -----------------------------------------
 Symbolic Z-matrix:
 Charge =  1 Multiplicity = 1

 SCF Done:  E(RB3LYP) =  -514.284295240     A.U. after   13 cycles
 SCF Done:  E(RB3LYP) =  -514.311073255     A.U. after   11 cycles
 SCF Done:  E(RB3LYP) =  -514.317105386     A.U. after   11 cycles
 SCF Done:  E(RB3LYP) =  -514.317782622     A.U. after   10 cycles
 SCF Done:  E(RB3LYP) =  -514.317866523     A.U. after   10 cycles
 SCF Done:  E(RB3LYP) =  -514.317905810     A.U. after    9 cycles
 SCF Done:  E(RB3LYP) =  -514.317921662     A.U. after   10 cycles
 SCF Done:  E(RB3LYP) =  -514.317941774     A.U. after    8 cycles
 SCF Done:  E(RB3LYP) =  -514.317952993     A.U. after    9 cycles
 SCF Done:  E(RB3LYP) =  -514.317963382     A.U. after    9 cycles
 SCF Done:  E(RB3LYP) =  -514.317989537     A.U. after    8 cycles
 SCF Done:  E(RB3LYP) =  -514.317993363     A.U. after    8 cycles
 SCF Done:  E(RB3LYP) =  -514.317992850     A.U. after    7 cycles
 SCF Done:  E(RB3LYP) =  -514.317992589     A.U. after    7 cycles
 SCF Done:  E(RB3LYP) =  -514.317993445     A.U. after    8 cycles
 SCF Done:  E(RB3LYP) =  -514.317992732     A.U. after    8 cycles
 Optimization completed.
    -- Stationary point found.
 Normal termination of Gaussian 16 at Sun Jul 11 16:36:53 2021.

 --------------------------------------------------------------------
 #P Geom=AllCheck Guess=TCheck SCRF=Check GenChk RB3LYP/6-31G(d) Freq
 --------------------------------------------------------------------

 Structure from the checkpoint file:  "SET_328_BBB315_conf1.geo_285_285.chk"
 -----------------------------------------
 SET_328_BBB315_conf1.geo_285_285 geometry
 -----------------------------------------
 Charge =  1 Multiplicity = 1

 SCF Done:  E(RB3LYP) =  -514.317992732     A.U. after    1 cycles

  Exact polarizability: 220.437   2.180 154.955 -29.960  -1.957  79.968
 Approx polarizability: 243.567  -0.263 189.160 -36.599  -1.785  90.928

                      1                      2                      3
                      A                      A                      A
 Frequencies --     34.6141                71.1582               142.7091
 Red. masses --      3.7042                 4.0381                 3.3740
 Frc consts  --      0.0026                 0.0120                 0.0405
 IR Inten    --     15.4005                26.8082                22.7680

                      4                      5                      6
                      A                      A                      A
 Frequencies --    185.1608               242.8775               265.5264
 Red. masses --      2.5290                 4.1939                 1.4501
 Frc consts  --      0.0511                 0.1458                 0.0602
 IR Inten    --      5.8427                 3.8513                 2.6207

                      7                      8                      9
                      A                      A                      A
 Frequencies --    296.2765               325.5455               421.5128
 Red. masses --      1.7570                 3.0753                 2.5761
 Frc consts  --      0.0909                 0.1920                 0.2697
 IR Inten    --      5.8853                22.3250                 1.1699

                     10                     11                     12
                      A                      A                      A
 Frequencies --    453.6367               483.1967               545.2198
 Red. masses --      2.9567                 4.2082                 3.9637
 Frc consts  --      0.3585                 0.5789                 0.6942
 IR Inten    --      7.1666                 6.2047                 0.9626

                     13                     14                     15
                      A                      A                      A
 Frequencies --    579.7854               628.2602               663.9831
 Red. masses --      3.4656                 6.3404                 4.6627
 Frc consts  --      0.6864                 1.4745                 1.2112
 IR Inten    --      0.0191                 0.7137                 2.2140

                     16                     17                     18
                      A                      A                      A
 Frequencies --    698.2230               727.4896               761.1917
 Red. masses --      1.8025                 1.8715                 1.7061
 Frc consts  --      0.5177                 0.5836                 0.5824
 IR Inten    --     19.7533                12.0623                63.2941

                     19                     20                     21
                      A                      A                      A
 Frequencies --    769.4484               823.0280               853.4820
 Red. masses --      2.7413                 3.1320                 2.3118
 Frc consts  --      0.9562                 1.2500                 0.9922
 IR Inten    --     37.8496                 3.2060                 4.4354

                     22                     23                     24
                      A                      A                      A
 Frequencies --    859.0675               890.3501               922.7231
 Red. masses --      1.4316                 1.9217                 4.1656
 Frc consts  --      0.6225                 0.8975                 2.0897
 IR Inten    --      1.1991                35.1660                 7.0545

                     25                     26                     27
                      A                      A                      A
 Frequencies --    947.3279               948.5777               990.0486
 Red. masses --      1.3061                 1.5912                 1.2546
 Frc consts  --      0.6906                 0.8436                 0.7246
 IR Inten    --      0.6942                29.1048                 0.0550

                     28                     29                     30
                      A                      A                      A
 Frequencies --   1003.3955              1035.5098              1046.9773
 Red. masses --      3.8813                 2.5352                 2.6220
 Frc consts  --      2.3023                 1.6017                 1.6934
 IR Inten    --     12.8131                 7.1836                 7.8604

                     31                     32                     33
                      A                      A                      A
 Frequencies --   1110.2807              1113.4379              1154.3140
 Red. masses --      1.4808                 1.3835                 1.5627
 Frc consts  --      1.0755                 1.0105                 1.2268
 IR Inten    --      6.8644                50.4054                 4.0494

                     34                     35                     36
                      A                      A                      A
 Frequencies --   1168.8359              1203.3921              1264.0711
 Red. masses --      1.1783                 1.3481                 2.0888
 Frc consts  --      0.9484                 1.1502                 1.9665
 IR Inten    --     24.5383                 3.9951                61.7770

                     37                     38                     39
                      A                      A                      A
 Frequencies --   1286.0294              1304.1908              1343.5397
 Red. masses --      1.8476                 2.4316                 1.4175
 Frc consts  --      1.8004                 2.4368                 1.5076
 IR Inten    --      3.2450                64.8699                 5.7570

                     40                     41                     42
                      A                      A                      A
 Frequencies --   1367.4616              1377.3035              1393.2498
 Red. masses --      1.5839                 3.0643                 2.2161
 Frc consts  --      1.7451                 3.4249                 2.5346
 IR Inten    --    146.8201                32.2631                21.4914

                     43                     44                     45
                      A                      A                      A
 Frequencies --   1411.3725              1423.1730              1482.4400
 Red. masses --      2.2013                 1.4810                 1.1093
 Frc consts  --      2.5835                 1.7674                 1.4363
 IR Inten    --      4.5371                17.5796                13.3840

                     46                     47                     48
                      A                      A                      A
 Frequencies --   1500.6430              1510.1043              1533.4933
 Red. masses --      2.6771                 1.0829                 1.1740
 Frc consts  --      3.5520                 1.4549                 1.6266
 IR Inten    --      0.3109                12.8913               208.7920

                     49                     50                     51
                      A                      A                      A
 Frequencies --   1549.6905              1579.7051              1592.2061
 Red. masses --      4.9401                 4.8989                 5.5326
 Frc consts  --      6.9900                 7.2027                 8.2637
 IR Inten    --    110.0204                 2.0391                15.2240

                     52                     53                     54
                      A                      A                      A
 Frequencies --   1633.2682              1654.0456              1694.2213
 Red. masses --      1.0344                 1.0425                 6.0149
 Frc consts  --      1.6258                 1.6805                10.1722
 IR Inten    --     59.2415                83.7327                29.5724

                     55                     56                     57
                      A                      A                      A
 Frequencies --   3079.6951              3124.9889              3141.0106
 Red. masses --      1.0622                 1.0978                 1.0642
 Frc consts  --      5.9357                 6.3166                 6.1859
 IR Inten    --     30.2142                12.8646                25.3785

                     58                     59                     60
                      A                      A                      A
 Frequencies --   3198.5360              3224.8422              3242.6872
 Red. masses --      1.1104                 1.0881                 1.0921
 Frc consts  --      6.6934                 6.6670                 6.7657
 IR Inten    --     15.9466                 6.1548                10.8302

                     61                     62                     63
                      A                      A                      A
 Frequencies --   3247.6677              3268.4076              3314.2393
 Red. masses --      1.0938                 1.0969                 1.0985
 Frc consts  --      6.7974                 6.9038                 7.1094
 IR Inten    --     10.5578                 6.8966                 0.1689

                     64                     65                     66
                      A                      A                      A
 Frequencies --   3367.1001              3438.5796              3465.0365
 Red. masses --      1.0408                 1.0861                 1.0934
 Frc consts  --      6.9525                 7.5659                 7.7345
 IR Inten    --    120.2553               215.8642               247.8513

 - Thermochemistry -
 -------------------
 Temperature   298.150 Kelvin.  Pressure   1.00000 Atm.
 Atom     1 has atomic number  7 and mass  14.00307

 Molecular mass:   162.10312 amu.
 Principal axes and moments of inertia in atomic units:
                           1         2         3
     Eigenvalues --   735.194603439.927983685.83955
           X            0.99999   0.00136   0.00332
           Y           -0.00134   0.99997  -0.00789
           Z           -0.00333   0.00788   0.99996
 This molecule is an asymmetric top.
 Rotational symmetry number  1.
 Warning -- assumption of classical behavior for rotation
           may cause significant error
 Rotational temperatures (Kelvin)      0.11781     0.02518     0.02350
 Rotational constants (GHZ):           2.45478     0.52465     0.48964
 Zero-point vibrational energy     546571.2 (Joules/Mol)
                                  130.63364 (Kcal/Mol)
 Warning -- explicit consideration of  13 degrees of freedom as
           vibrations may cause significant error
 Vibrational temperatures:     49.80   102.38   205.33   266.41   349.45
          (Kelvin)            382.03   426.28   468.39   606.46   652.68
                              695.21   784.45   834.18   903.93   955.32
                             1004.59  1046.70  1095.19  1107.06  1184.15
                             1227.97  1236.01  1281.02  1327.59  1362.99
                             1364.79  1424.46  1443.66  1489.87  1506.37
                             1597.45  1601.99  1660.80  1681.69  1731.41
                             1818.72  1850.31  1876.44  1933.05  1967.47
                             1981.63  2004.58  2030.65  2047.63  2132.90
                             2159.09  2172.70  2206.35  2229.66  2272.84
                             2290.83  2349.91  2379.80  2437.61  4430.99
                             4496.16  4519.21  4601.98  4639.83  4665.50
                             4672.67  4702.51  4768.45  4844.51  4947.35
                             4985.41

 Zero-point correction=                           0.208178 (Hartree/Particle)
 Thermal correction to Energy=                    0.218259
 Thermal correction to Enthalpy=                  0.219203
 Thermal correction to Gibbs Free Energy=         0.171807
 Sum of electronic and zero-point Energies=           -514.109815
 Sum of electronic and thermal Energies=              -514.099734
 Sum of electronic and thermal Enthalpies=            -514.098789
 Sum of electronic and thermal Free Energies=         -514.146186

                     E (Thermal)             CV                S
                      KCal/Mol        Cal/Mol-Kelvin    Cal/Mol-Kelvin
 Total                  136.960             39.653             99.754
 Electronic               0.000              0.000              0.000
 Translational            0.889              2.981             41.158
 Rotational               0.889              2.981             30.612
 Vibrational            135.182             33.691             27.985
 Vibration     1          0.594              1.983              5.546
 Vibration     2          0.598              1.968              4.121
 Vibration     3          0.616              1.910              2.767
 Vibration     4          0.631              1.860              2.276
 Vibration     5          0.659              1.775              1.782
 Vibration     6          0.671              1.736              1.625
 Vibration     7          0.690              1.681              1.438
 Vibration     8          0.710              1.624              1.282
 Vibration     9          0.784              1.423              0.887
 Vibration    10          0.812              1.353              0.785
 Vibration    11          0.839              1.287              0.701
 Vibration    12          0.900              1.150              0.554
 Vibration    13          0.936              1.075              0.486

 Optimization completed.
    -- Stationary point found.
 Normal termination of Gaussian 16 at Sun Jul 11 16:41:08 2021.

 ----------------------------------------------------------------------
 #p b3lyp/6-31G(d) scrf=(iefpcm,read,solvent=water) geom=allcheck guess
 =read
 ----------------------------------------------------------------------

 Structure from the checkpoint file:  "SET_328_BBB315_conf1.geo_285_285.chk"
 -----------------------------------------
 SET_328_BBB315_conf1.geo_285_285 geometry
 -----------------------------------------
 Charge =  1 Multiplicity = 1

 SCF Done:  E(RB3LYP) =  -514.317992732     A.U. after    1 cycles
 Normal termination of Gaussian 16 at Sun Jul 11 16:41:13 2021.

 -----------------------------
 #p B3LYP/6-31G* geom=allcheck
 -----------------------------

 Structure from the checkpoint file:  "SET_328_BBB315_conf1.geo_285_285.chk"
 -----------------------------------------
 SET_328_BBB315_conf1.geo_285_285 geometry
 -----------------------------------------
 Charge =  1 Multiplicity = 1

 SCF Done:  E(RB3LYP) =  -514.205667509     A.U. after   14 cycles
 Normal termination of Gaussian 16 at Sun Jul 11 16:41:35 2021.
 Gaussian 16:  ES64L-G16RevB.01 20-Dec-2017

 --------------------------------------------------------
 #p mp2/aug-cc-pVDZ scf=tight maxdisk=180GB geom=allcheck
 --------------------------------------------------------

 Structure from the checkpoint file:  "SET_328_BBB315_conf1.geo_285_285.chk"
 -----------------------------------------
 SET_328_BBB315_conf1.geo_285_285 geometry
 -----------------------------------------
 Charge =  1 Multiplicity = 1

                         Standard orientation:
 ---------------------------------------------------------------------
 Center     Atomic      Atomic             Coordinates (Angstroms)
 Number     Number       Type             X           Y           Z
 ---------------------------------------------------------------------
      1          7           0        3.303341    0.278731    1.350167
      2          1           0        3.854214   -0.159840    2.103767
      3          1           0        2.339890    0.389987    1.696497
      4          6           0        3.342737   -0.545194    0.096058
      5          1           0        2.984656   -1.538841    0.364130
      6          1           0        4.387049   -0.608726   -0.204190
      7          6           0        2.480724    0.074654   -1.003205
      8          1           0        2.645989   -0.526087   -1.903683
      9          1           0        2.830075    1.087056   -1.223766
     10          6           0        1.018630    0.092532   -0.663178
     11          6           0        0.214176    1.199148   -0.487343
     12          1           0        0.409124    2.256391   -0.561151
     13          7           0       -1.037678    0.705929   -0.180424
     14          6           0       -2.221652    1.349954    0.087559
     15          1           0       -2.200277    2.430814    0.059449
     16          6           0       -3.332760    0.606314    0.367765
     17          1           0       -4.264816    1.114987    0.578863
     18          6           0       -3.264796   -0.814877    0.381325
     19          1           0       -4.156350   -1.388868    0.605786
     20          6           0       -2.080382   -1.457494    0.112255
     21          1           0       -1.996213   -2.537341    0.114438
     22          6           0       -0.926800   -0.693668   -0.178441
     23          7           0        0.319722   -1.072653   -0.470156
     24          1           0        3.689707    1.228216    1.195994
 ---------------------------------------------------------------------

 SCF Done:  E(RHF) =  -510.995669026     A.U. after   17 cycles
 E2 =    -0.1752527940D+01 EUMP2 =    -0.51274819696504D+03

 The electronic state is 1-A.
 Alpha  occ. eigenvalues --  -15.88466 -15.76917 -15.66772 -11.46457 -11.42939
 Alpha  occ. eigenvalues --  -11.41003 -11.39883 -11.39732 -11.38877 -11.36721
 Alpha  occ. eigenvalues --  -11.35633 -11.35613  -1.49352  -1.47924  -1.33064
 Alpha  occ. eigenvalues --   -1.23362  -1.21639  -1.13735  -1.12064  -1.05026
 Alpha  occ. eigenvalues --   -0.97710  -0.95435  -0.95050  -0.94271  -0.91070
 Alpha  occ. eigenvalues --   -0.83899  -0.82626  -0.80577  -0.77639  -0.75865
 Alpha  occ. eigenvalues --   -0.75072  -0.73700  -0.72529  -0.70943  -0.68656
 Alpha  occ. eigenvalues --   -0.66806  -0.64740  -0.63329  -0.58164  -0.55608
 Alpha  occ. eigenvalues --   -0.54840  -0.44342  -0.40473
 Alpha virt. eigenvalues --   -0.10374  -0.07033  -0.06867  -0.05230  -0.03999
 Alpha virt. eigenvalues --   -0.03487  -0.03184  -0.03057  -0.02482  -0.02038
 Alpha virt. eigenvalues --   -0.01515  -0.01111  -0.00505   0.00457   0.00722

 Mulliken charges:
               1
     1  N   -0.471874
     2  H    0.169114
     3  H    0.274628
     4  C    0.886414
     5  H   -0.096832
     6  H   -0.132963
     7  C    0.446606
     8  H    0.083044
     9  H   -0.129313
    10  C    0.135252
    11  C    1.068605
    12  H   -0.464914
    13  N   -0.735906
    14  C    0.666509
    15  H   -0.490912
    16  C    0.800165
    17  H   -0.429153
    18  C   -0.058082
    19  H   -0.406627
    20  C    1.475707
    21  H   -0.480688
    22  C   -0.305166
    23  N   -1.043482
    24  H    0.239867
 Sum of Mulliken charges =   1.00000

 Dipole moment (field-independent basis, Debye):
    X=             10.0802    Y=              3.2822    Z=              5.1038  Tot=             11.7657
 Quadrupole moment (field-independent basis, Debye-Ang):
   XX=             -2.3897   YY=            -60.8301   ZZ=            -62.6158
   XY=              3.6945   XZ=             13.2348   YZ=             -0.0524

 Normal termination of Gaussian 16 at Sun Jul 11 16:49:12 2021.
