 Gaussian 16, Revision B.01,

 -----------------------------------------------------------
 #p b3lyp/6-31G(d) opt freq scrf=(iefpcm,read,solvent=water)
 -----------------------------------------------------------

 -----------------------------------------
 SET_328_BBB299_conf1.geo_180_000 geometry
 -----------------------------------------
 Symbolic Z-matrix:
 Charge = -1 Multiplicity = 1

 SCF Done:  E(RB3LYP) =  -495.572254034     A.U. after   13 cycles
 SCF Done:  E(RB3LYP) =  -495.593548585     A.U. after   12 cycles
 SCF Done:  E(RB3LYP) =  -495.588111433     A.U. after   12 cycles
 SCF Done:  E(RB3LYP) =  -495.595545910     A.U. after   12 cycles
 SCF Done:  E(RB3LYP) =  -495.597693351     A.U. after   11 cycles
 SCF Done:  E(RB3LYP) =  -495.597847905     A.U. after   10 cycles
 SCF Done:  E(RB3LYP) =  -495.597832935     A.U. after   10 cycles
 SCF Done:  E(RB3LYP) =  -495.598044965     A.U. after    9 cycles
 SCF Done:  E(RB3LYP) =  -495.598068490     A.U. after   10 cycles
 SCF Done:  E(RB3LYP) =  -495.598073793     A.U. after    8 cycles
 SCF Done:  E(RB3LYP) =  -495.598075951     A.U. after    8 cycles
 SCF Done:  E(RB3LYP) =  -495.598074959     A.U. after    7 cycles
 Optimization completed.
    -- Stationary point found.
 Normal termination of Gaussian 16 at Sun Jul 11 16:14:47 2021.

 --------------------------------------------------------------------
 #P Geom=AllCheck Guess=TCheck SCRF=Check GenChk RB3LYP/6-31G(d) Freq
 --------------------------------------------------------------------

 Structure from the checkpoint file:  "SET_328_BBB299_conf1.geo_180_000.chk"
 -----------------------------------------
 SET_328_BBB299_conf1.geo_180_000 geometry
 -----------------------------------------
 Charge = -1 Multiplicity = 1

 SCF Done:  E(RB3LYP) =  -495.598074959     A.U. after    1 cycles

  Exact polarizability: 146.519  -1.563 137.908   0.003   0.003  38.508
 Approx polarizability: 166.444  -3.723 175.491   0.004   0.003  46.307

                      1                      2                      3
                      A                      A                      A
 Frequencies --     96.1056               149.1557               256.6538
 Red. masses --     10.6918                 5.5830                 5.6823
 Frc consts  --      0.0582                 0.0732                 0.2205
 IR Inten    --      1.0510                 1.8977                 1.4332

                      4                      5                      6
                      A                      A                      A
 Frequencies --    274.0827               377.6202               441.6860
 Red. masses --      7.2389                 8.0566                 3.6827
 Frc consts  --      0.3204                 0.6769                 0.4233
 IR Inten    --     15.3146                37.9141                 0.3861

                      7                      8                      9
                      A                      A                      A
 Frequencies --    444.3680               542.3106               546.5797
 Red. masses --      9.4588                 6.3046                 3.4432
 Frc consts  --      1.1005                 1.0925                 0.6061
 IR Inten    --      5.7985                 6.7840                 8.6272

                     10                     11                     12
                      A                      A                      A
 Frequencies --    571.5945               677.4737               700.2507
 Red. masses --      6.9779                 7.0577                 4.5349
 Frc consts  --      1.3432                 1.9085                 1.3102
 IR Inten    --      6.4138                47.3755                15.7653

                     13                     14                     15
                      A                      A                      A
 Frequencies --    766.8056               798.8650               814.1628
 Red. masses --      1.7071                 2.9391                 8.7438
 Frc consts  --      0.5914                 1.1051                 3.4149
 IR Inten    --     82.2066                 3.6836                62.5832

                     16                     17                     18
                      A                      A                      A
 Frequencies --    865.9470               867.9397               877.9088
 Red. masses --      6.5546                 1.3217                 1.1506
 Frc consts  --      2.8959                 0.5866                 0.5225
 IR Inten    --     53.8454                78.4634                62.8182

                     19                     20                     21
                      A                      A                      A
 Frequencies --    967.4484               985.2891              1058.0881
 Red. masses --      1.3433                 1.2390                 2.1614
 Frc consts  --      0.7408                 0.7087                 1.4257
 IR Inten    --      2.4250                 0.1873                23.7543

                     22                     23                     24
                      A                      A                      A
 Frequencies --   1110.0557              1162.8430              1180.7689
 Red. masses --      2.7057                 1.6351                 1.2184
 Frc consts  --      1.9644                 1.3027                 1.0009
 IR Inten    --      7.3957                36.4968                 6.8021

                     25                     26                     27
                      A                      A                      A
 Frequencies --   1258.0566              1298.5670              1350.8215
 Red. masses --      1.6893                 4.1539                 4.3176
 Frc consts  --      1.5752                 4.1270                 4.6418
 IR Inten    --      9.3283               160.2284                66.0108

                     28                     29                     30
                      A                      A                      A
 Frequencies --   1374.9066              1450.3291              1504.5550
 Red. masses --      5.8721                 1.7544                 3.1200
 Frc consts  --      6.5401                 2.1743                 4.1612
 IR Inten    --    596.0385               201.0422               221.9943

                     31                     32                     33
                      A                      A                      A
 Frequencies --   1532.8261              1639.7314              1645.7162
 Red. masses --      2.3208                 7.6092                 4.4140
 Frc consts  --      3.2127                12.0541                 7.0436
 IR Inten    --    350.1822               532.6052                86.6851

                     34                     35                     36
                      A                      A                      A
 Frequencies --   1695.6695              2846.0035              3196.7265
 Red. masses --      4.0591                 1.0725                 1.0855
 Frc consts  --      6.8764                 5.1183                 6.5355
 IR Inten    --    231.5364              1216.6096                 4.3073

                     37                     38                     39
                      A                      A                      A
 Frequencies --   3209.3823              3218.2735              3229.7876
 Red. masses --      1.0895                 1.0942                 1.0930
 Frc consts  --      6.6121                 6.6770                 6.7179
 IR Inten    --     31.5135                43.6414                26.6297

 - Thermochemistry -
 -------------------
 Temperature   298.150 Kelvin.  Pressure   1.00000 Atm.
 Atom     1 has atomic number  8 and mass  15.99491

 Molecular mass:   137.02387 amu.
 Principal axes and moments of inertia in atomic units:
                           1         2         3
     Eigenvalues --   755.830911462.029622217.86052
           X            0.99981  -0.01963   0.00000
           Y            0.01963   0.99981   0.00001
           Z           -0.00000  -0.00001   1.00000
 This molecule is an asymmetric top.
 Rotational symmetry number  1.
 Warning -- assumption of classical behavior for rotation
           may cause significant error
 Rotational temperatures (Kelvin)      0.11459     0.05924     0.03905
 Rotational constants (GHZ):           2.38776     1.23441     0.81373
 Zero-point vibrational energy     281034.8 (Joules/Mol)
                                   67.16894 (Kcal/Mol)
 Warning -- explicit consideration of  10 degrees of freedom as
           vibrations may cause significant error
 Vibrational temperatures:    138.27   214.60   369.27   394.34   543.31
          (Kelvin)            635.49   639.35   780.26   786.41   822.40
                              974.73  1007.50  1103.26  1149.39  1171.40
                             1245.90  1248.77  1263.11  1391.94  1417.61
                             1522.35  1597.12  1673.07  1698.86  1810.06
                             1868.35  1943.53  1978.18  2086.70  2164.72
                             2205.39  2359.21  2367.82  2439.69  4094.76
                             4599.38  4617.59  4630.38  4646.94

 Zero-point correction=                           0.107041 (Hartree/Particle)
 Thermal correction to Energy=                    0.114518
 Thermal correction to Enthalpy=                  0.115463
 Thermal correction to Gibbs Free Energy=         0.074579
 Sum of electronic and zero-point Energies=           -495.491034
 Sum of electronic and thermal Energies=              -495.483557
 Sum of electronic and thermal Enthalpies=            -495.482612
 Sum of electronic and thermal Free Energies=         -495.523496

                     E (Thermal)             CV                S
                      KCal/Mol        Cal/Mol-Kelvin    Cal/Mol-Kelvin
 Total                   71.861             29.032             86.046
 Electronic               0.000              0.000              0.000
 Translational            0.889              2.981             40.657
 Rotational               0.889              2.981             29.284
 Vibrational             70.084             23.070             16.105
 Vibration     1          0.603              1.952              3.532
 Vibration     2          0.618              1.904              2.683
 Vibration     3          0.666              1.752              1.684
 Vibration     4          0.676              1.721              1.570
 Vibration     5          0.748              1.518              1.049
 Vibration     6          0.801              1.379              0.821
 Vibration     7          0.804              1.373              0.813
 Vibration     8          0.897              1.157              0.560
 Vibration     9          0.902              1.147              0.551
 Vibration    10          0.928              1.093              0.501

 Optimization completed.
    -- Stationary point found.
 Normal termination of Gaussian 16 at Sun Jul 11 16:17:01 2021.

 ----------------------------------------------------------------------
 #p b3lyp/6-31G(d) scrf=(iefpcm,read,solvent=water) geom=allcheck guess
 =read
 ----------------------------------------------------------------------

 Structure from the checkpoint file:  "SET_328_BBB299_conf1.geo_180_000.chk"
 -----------------------------------------
 SET_328_BBB299_conf1.geo_180_000 geometry
 -----------------------------------------
 Charge = -1 Multiplicity = 1

 SCF Done:  E(RB3LYP) =  -495.598074959     A.U. after    1 cycles
 Normal termination of Gaussian 16 at Sun Jul 11 16:17:06 2021.

 -----------------------------
 #p B3LYP/6-31G* geom=allcheck
 -----------------------------

 Structure from the checkpoint file:  "SET_328_BBB299_conf1.geo_180_000.chk"
 -----------------------------------------
 SET_328_BBB299_conf1.geo_180_000 geometry
 -----------------------------------------
 Charge = -1 Multiplicity = 1

 SCF Done:  E(RB3LYP) =  -495.501025788     A.U. after   15 cycles
 Normal termination of Gaussian 16 at Sun Jul 11 16:17:24 2021.
 Gaussian 16:  ES64L-G16RevB.01 20-Dec-2017

 --------------------------------------------------------
 #p mp2/aug-cc-pVDZ scf=tight maxdisk=180GB geom=allcheck
 --------------------------------------------------------

 Structure from the checkpoint file:  "SET_328_BBB299_conf1.geo_180_000.chk"
 -----------------------------------------
 SET_328_BBB299_conf1.geo_180_000 geometry
 -----------------------------------------
 Charge = -1 Multiplicity = 1

                         Standard orientation:
 ---------------------------------------------------------------------
 Center     Atomic      Atomic             Coordinates (Angstroms)
 Number     Number       Type             X           Y           Z
 ---------------------------------------------------------------------
      1          8           0       -2.272815   -1.512879    0.000259
      2          6           0       -1.739377   -0.378546    0.000015
      3          8           0       -2.387908    0.730551   -0.000128
      4          6           0       -0.229817   -0.282226   -0.000109
      5          6           0        0.425617    0.973067    0.000026
      6          8           0       -0.267003    2.131794   -0.000043
      7          1           0       -1.241731    1.835546   -0.000064
      8          6           0        1.828902    1.028591    0.000156
      9          1           0        2.309040    2.001748    0.000280
     10          6           0        2.576981   -0.144180    0.000031
     11          1           0        3.661218   -0.084922    0.000194
     12          6           0        1.942451   -1.392898   -0.000056
     13          1           0        2.527547   -2.306535   -0.000083
     14          6           0        0.551352   -1.444824   -0.000188
     15          1           0        0.029077   -2.395460   -0.000275
 ---------------------------------------------------------------------

 SCF Done:  E(RHF) =  -492.711573611     A.U. after   16 cycles
 E2 =    -0.1544389495D+01 EUMP2 =    -0.49425596310571D+03

 The electronic state is 1-A.
 Alpha  occ. eigenvalues --  -20.43022 -20.34539 -20.33598 -11.18668 -11.17704
 Alpha  occ. eigenvalues --  -11.13004 -11.11514 -11.10832 -11.10785 -11.09660
 Alpha  occ. eigenvalues --   -1.25120  -1.20541  -1.10457  -1.01642  -0.89453
 Alpha  occ. eigenvalues --   -0.87252  -0.72525  -0.68788  -0.61714  -0.56585
 Alpha  occ. eigenvalues --   -0.54580  -0.50964  -0.47497  -0.46554  -0.44434
 Alpha  occ. eigenvalues --   -0.43367  -0.41985  -0.40138  -0.38786  -0.36132
 Alpha  occ. eigenvalues --   -0.34441  -0.24966  -0.24386  -0.23233  -0.20934
 Alpha  occ. eigenvalues --   -0.17649
 Alpha virt. eigenvalues --    0.11255   0.12191   0.13362   0.15388   0.16509
 Alpha virt. eigenvalues --    0.20745   0.20876   0.21581   0.21900   0.22810
 Alpha virt. eigenvalues --    0.23174   0.23218   0.23519   0.24012   0.25216

 Mulliken charges:
               1
     1  O   -0.964060
     2  C    0.845048
     3  O   -1.082855
     4  C    0.872779
     5  C    0.151825
     6  O   -1.026842
     7  H    0.290539
     8  C    0.802274
     9  H   -0.523742
    10  C    0.453266
    11  H   -0.462321
    12  C    0.439767
    13  H   -0.462780
    14  C    0.260254
    15  H   -0.593151
 Sum of Mulliken charges =  -1.00000

 Dipole moment (field-independent basis, Debye):
    X=              8.1267    Y=              0.2007    Z=             -0.0002  Tot=              8.1291
 Quadrupole moment (field-independent basis, Debye-Ang):
   XX=            -86.6365   YY=            -72.4229   ZZ=            -63.3565
   XY=             -4.7380   XZ=              0.0017   YZ=              0.0023

 Normal termination of Gaussian 16 at Sun Jul 11 16:19:25 2021.
