 Gaussian 16, Revision B.01,

 -----------------------------------------------------------
 #p b3lyp/6-31G(d) opt freq scrf=(iefpcm,read,solvent=water)
 -----------------------------------------------------------

 ----------------------------------------
 SET_328_BBB87_conf1.geo_075_240 geometry
 ----------------------------------------
 Symbolic Z-matrix:
 Charge =  1 Multiplicity = 1

 SCF Done:  E(RB3LYP) =  -703.489022152     A.U. after   13 cycles
 SCF Done:  E(RB3LYP) =  -703.506564411     A.U. after   12 cycles
 SCF Done:  E(RB3LYP) =  -703.508593642     A.U. after   11 cycles
 SCF Done:  E(RB3LYP) =  -703.508768034     A.U. after   10 cycles
 SCF Done:  E(RB3LYP) =  -703.509129264     A.U. after   10 cycles
 SCF Done:  E(RB3LYP) =  -703.509614073     A.U. after   11 cycles
 SCF Done:  E(RB3LYP) =  -703.509836745     A.U. after   11 cycles
 SCF Done:  E(RB3LYP) =  -703.509704808     A.U. after   13 cycles
 SCF Done:  E(RB3LYP) =  -703.509919445     A.U. after   10 cycles
 SCF Done:  E(RB3LYP) =  -703.510066353     A.U. after   11 cycles
 SCF Done:  E(RB3LYP) =  -703.512244408     A.U. after   10 cycles
 SCF Done:  E(RB3LYP) =  -703.512324095     A.U. after   11 cycles
 SCF Done:  E(RB3LYP) =  -703.512338019     A.U. after    9 cycles
 SCF Done:  E(RB3LYP) =  -703.512340608     A.U. after    8 cycles
 SCF Done:  E(RB3LYP) =  -703.512317150     A.U. after    9 cycles
 SCF Done:  E(RB3LYP) =  -703.512311139     A.U. after    8 cycles
 Optimization completed.
    -- Stationary point found.
 Normal termination of Gaussian 16 at Sun Jul 11 16:27:40 2021.

 --------------------------------------------------------------------
 #P Geom=AllCheck Guess=TCheck SCRF=Check GenChk RB3LYP/6-31G(d) Freq
 --------------------------------------------------------------------

 Structure from the checkpoint file:  "SET_328_BBB87_conf1.geo_075_240.chk"
 ----------------------------------------
 SET_328_BBB87_conf1.geo_075_240 geometry
 ----------------------------------------
 Charge =  1 Multiplicity = 1

 SCF Done:  E(RB3LYP) =  -703.512311139     A.U. after    1 cycles

  Exact polarizability: 127.395   2.066 114.237   4.270  -1.209  61.269
 Approx polarizability: 145.612   6.904 140.654   6.122  -1.300  70.810

                      1                      2                      3
                      A                      A                      A
 Frequencies --     57.1702               174.1119               188.2070
 Red. masses --      4.2499                 2.4169                 4.0343
 Frc consts  --      0.0082                 0.0432                 0.0842
 IR Inten    --     13.0818                 7.4666                45.6417

                      4                      5                      6
                      A                      A                      A
 Frequencies --    270.9398               302.1206               383.6236
 Red. masses --      3.7976                 2.8276                 1.0574
 Frc consts  --      0.1642                 0.1521                 0.0917
 IR Inten    --     30.8868                36.6745                 2.6336

                      7                      8                      9
                      A                      A                      A
 Frequencies --    439.1853               507.3532               584.4793
 Red. masses --      2.4991                 4.4606                 4.9164
 Frc consts  --      0.2840                 0.6765                 0.9895
 IR Inten    --      5.4364                 3.7444                 3.7958

                     10                     11                     12
                      A                      A                      A
 Frequencies --    622.7031               706.7584               747.2678
 Red. masses --      4.8907                 2.9270                 1.2920
 Frc consts  --      1.1173                 0.8614                 0.4251
 IR Inten    --     13.9835                 9.3151                48.0174

                     13                     14                     15
                      A                      A                      A
 Frequencies --    764.8710               862.2021               886.3187
 Red. masses --      7.5925                 2.5407                 3.6372
 Frc consts  --      2.6170                 1.1128                 1.6834
 IR Inten    --     10.0254                 6.7118                29.6398

                     16                     17                     18
                      A                      A                      A
 Frequencies --    901.3751               907.1827               958.5620
 Red. masses --      1.3210                 1.6552                 1.4631
 Frc consts  --      0.6324                 0.8026                 0.7921
 IR Inten    --      3.2592                63.6169                12.7608

                     19                     20                     21
                      A                      A                      A
 Frequencies --   1031.0188              1091.8966              1105.5307
 Red. masses --      3.0165                 1.5834                 1.3958
 Frc consts  --      1.8892                 1.1122                 1.0051
 IR Inten    --      6.3437               122.0350               118.6969

                     22                     23                     24
                      A                      A                      A
 Frequencies --   1143.4303              1167.4019              1214.8531
 Red. masses --      1.5207                 2.1368                 1.9140
 Frc consts  --      1.1714                 1.7157                 1.6644
 IR Inten    --     19.3152                33.5389                 8.2877

                     25                     26                     27
                      A                      A                      A
 Frequencies --   1294.8003              1352.0971              1364.5028
 Red. masses --      1.2365                 1.9704                 1.2537
 Frc consts  --      1.2214                 2.1224                 1.3753
 IR Inten    --     39.5000                 0.6299                53.3049

                     28                     29                     30
                      A                      A                      A
 Frequencies --   1405.4146              1430.0165              1484.6865
 Red. masses --      1.5283                 1.3915                 1.6057
 Frc consts  --      1.7785                 1.6765                 2.0854
 IR Inten    --     21.0753                26.6279                47.4550

                     31                     32                     33
                      A                      A                      A
 Frequencies --   1500.6336              1520.9280              1521.5976
 Red. masses --      2.2462                 1.1024                 1.1717
 Frc consts  --      2.9802                 1.5025                 1.5983
 IR Inten    --      7.6365                34.3718               294.4710

                     34                     35                     36
                      A                      A                      A
 Frequencies --   1565.3899              1647.1906              1659.6916
 Red. masses --      5.1386                 1.0379                 1.0416
 Frc consts  --      7.4190                 1.6592                 1.6905
 IR Inten    --     33.1977                28.1180                84.7075

                     37                     38                     39
                      A                      A                      A
 Frequencies --   3078.7080              3135.1011              3143.5741
 Red. masses --      1.0678                 1.0817                 1.0746
 Frc consts  --      5.9631                 6.2640                 6.2565
 IR Inten    --     11.0677                 7.9202                34.2319

                     40                     41                     42
                      A                      A                      A
 Frequencies --   3197.4449              3209.5667              3266.5384
 Red. masses --      1.0949                 1.0814                 1.0914
 Frc consts  --      6.5953                 6.5633                 6.8614
 IR Inten    --    293.1731               298.4017                 4.8277

                     43                     44                     45
                      A                      A                      A
 Frequencies --   3301.6818              3412.9124              3461.0862
 Red. masses --      1.0995                 1.0616                 1.0941
 Frc consts  --      7.0616                 7.2857                 7.7218
 IR Inten    --      3.4218               248.6180               226.8089

 - Thermochemistry -
 -------------------
 Temperature   298.150 Kelvin.  Pressure   1.00000 Atm.
 Atom     1 has atomic number  7 and mass  14.00307

 Molecular mass:   129.04865 amu.
 Principal axes and moments of inertia in atomic units:
                           1         2         3
     Eigenvalues --   485.396741536.248761953.71507
           X            0.99983  -0.01839   0.00066
           Y            0.01839   0.99983  -0.00224
           Z           -0.00061   0.00225   1.00000
 This molecule is an asymmetric top.
 Rotational symmetry number  1.
 Warning -- assumption of classical behavior for rotation
           may cause significant error
 Rotational temperatures (Kelvin)      0.17844     0.05638     0.04433
 Rotational constants (GHZ):           3.71807     1.17477     0.92375
 Zero-point vibrational energy     382638.3 (Joules/Mol)
                                   91.45275 (Kcal/Mol)
 Warning -- explicit consideration of   9 degrees of freedom as
           vibrations may cause significant error
 Vibrational temperatures:     82.26   250.51   270.79   389.82   434.68
          (Kelvin)            551.95   631.89   729.97   840.94   895.93
                             1016.87  1075.15  1100.48  1240.52  1275.21
                             1296.88  1305.23  1379.16  1483.41  1571.00
                             1590.61  1645.14  1679.63  1747.90  1862.93
                             1945.37  1963.22  2022.08  2057.47  2136.13
                             2159.08  2188.28  2189.24  2252.25  2369.94
                             2387.93  4429.57  4510.71  4522.90  4600.41
                             4617.85  4699.82  4750.38  4910.42  4979.73

 Zero-point correction=                           0.145739 (Hartree/Particle)
 Thermal correction to Energy=                    0.153355
 Thermal correction to Enthalpy=                  0.154300
 Thermal correction to Gibbs Free Energy=         0.113051
 Sum of electronic and zero-point Energies=           -703.366572
 Sum of electronic and thermal Energies=              -703.358956
 Sum of electronic and thermal Enthalpies=            -703.358012
 Sum of electronic and thermal Free Energies=         -703.399261

                     E (Thermal)             CV                S
                      KCal/Mol        Cal/Mol-Kelvin    Cal/Mol-Kelvin
 Total                   96.232             28.598             86.816
 Electronic               0.000              0.000              0.000
 Translational            0.889              2.981             40.478
 Rotational               0.889              2.981             28.767
 Vibrational             94.454             22.636             17.570
 Vibration     1          0.596              1.975              4.553
 Vibration     2          0.627              1.874              2.391
 Vibration     3          0.633              1.856              2.245
 Vibration     4          0.675              1.727              1.590
 Vibration     5          0.694              1.670              1.405
 Vibration     6          0.753              1.505              1.025
 Vibration     7          0.799              1.385              0.829
 Vibration     8          0.863              1.234              0.640
 Vibration     9          0.941              1.065              0.477

 Optimization completed.
    -- Stationary point found.
 Normal termination of Gaussian 16 at Sun Jul 11 16:29:05 2021.

 ----------------------------------------------------------------------
 #p b3lyp/6-31G(d) scrf=(iefpcm,read,solvent=water) geom=allcheck guess
 =read
 ----------------------------------------------------------------------

 Structure from the checkpoint file:  "SET_328_BBB87_conf1.geo_075_240.chk"
 ----------------------------------------
 SET_328_BBB87_conf1.geo_075_240 geometry
 ----------------------------------------
 Charge =  1 Multiplicity = 1

 SCF Done:  E(RB3LYP) =  -703.512311139     A.U. after    1 cycles
 Normal termination of Gaussian 16 at Sun Jul 11 16:29:09 2021.

 -----------------------------
 #p B3LYP/6-31G* geom=allcheck
 -----------------------------

 Structure from the checkpoint file:  "SET_328_BBB87_conf1.geo_075_240.chk"
 ----------------------------------------
 SET_328_BBB87_conf1.geo_075_240 geometry
 ----------------------------------------
 Charge =  1 Multiplicity = 1

 SCF Done:  E(RB3LYP) =  -703.410864987     A.U. after   15 cycles
 Normal termination of Gaussian 16 at Sun Jul 11 16:29:20 2021.
 Gaussian 16:  ES64L-G16RevB.01 20-Dec-2017

 --------------------------------------------------------
 #p mp2/aug-cc-pVDZ scf=tight maxdisk=180GB geom=allcheck
 --------------------------------------------------------

 Structure from the checkpoint file:  "SET_328_BBB87_conf1.geo_075_240.chk"
 ----------------------------------------
 SET_328_BBB87_conf1.geo_075_240 geometry
 ----------------------------------------
 Charge =  1 Multiplicity = 1

                         Standard orientation:
 ---------------------------------------------------------------------
 Center     Atomic      Atomic             Coordinates (Angstroms)
 Number     Number       Type             X           Y           Z
 ---------------------------------------------------------------------
      1          7           0        2.685499    0.819849    0.136653
      2          1           0        1.822894    1.401270    0.132258
      3          1           0        3.427382    1.294387   -0.399322
      4          6           0        2.350511   -0.518994   -0.450090
      5          1           0        3.227355   -1.155020   -0.344851
      6          1           0        2.151237   -0.355551   -1.508690
      7          6           0        1.142768   -1.131175    0.256178
      8          1           0        1.368098   -1.271104    1.320013
      9          1           0        0.979873   -2.128564   -0.158563
     10          6           0       -0.100268   -0.297002    0.110671
     11          7           0       -0.091860    1.011994    0.081520
     12          6           0       -1.364284    1.528571   -0.036999
     13          1           0       -1.498587    2.600796   -0.075575
     14          6           0       -2.366671    0.607860   -0.095921
     15          1           0       -3.430111    0.769833   -0.186789
     16         16           0       -1.699125   -0.990615   -0.007619
     17          1           0        3.010049    0.735336    1.113183
 ---------------------------------------------------------------------

 SCF Done:  E(RHF) =  -700.831732160     A.U. after   15 cycles
 E2 =    -0.1193487618D+01 EUMP2 =    -0.70202521977781D+03

 The electronic state is 1-A.
 Alpha  occ. eigenvalues --  -92.13132 -15.87165 -15.72923 -11.47922 -11.46945
 Alpha  occ. eigenvalues --  -11.42761 -11.40636 -11.40182  -9.13314  -6.81453
 Alpha  occ. eigenvalues --   -6.81363  -6.81190  -1.48899  -1.42822  -1.24134
 Alpha  occ. eigenvalues --   -1.20089  -1.13776  -1.05265  -0.95596  -0.94351
 Alpha  occ. eigenvalues --   -0.92905  -0.87875  -0.83719  -0.82043  -0.77802
 Alpha  occ. eigenvalues --   -0.74818  -0.73129  -0.70138  -0.68542  -0.67815
 Alpha  occ. eigenvalues --   -0.63426  -0.58011  -0.52672  -0.46879
 Alpha virt. eigenvalues --   -0.09970  -0.07225  -0.06841  -0.05751  -0.04030
 Alpha virt. eigenvalues --   -0.03791  -0.03588  -0.03378  -0.02623  -0.01609
 Alpha virt. eigenvalues --   -0.01328  -0.00050   0.00031   0.01144   0.01672

 Mulliken charges:
               1
     1  N   -0.391098
     2  H    0.252570
     3  H    0.178657
     4  C    0.909551
     5  H   -0.100956
     6  H   -0.144762
     7  C    0.165731
     8  H    0.029005
     9  H    0.043214
    10  C   -0.123658
    11  N   -0.668758
    12  C    0.678130
    13  H   -0.260507
    14  C    0.133287
    15  H   -0.330675
    16  S    0.384124
    17  H    0.246144
 Sum of Mulliken charges =   1.00000

 Dipole moment (field-independent basis, Debye):
    X=              8.5730    Y=              1.4274    Z=              0.2261  Tot=              8.6940
 Quadrupole moment (field-independent basis, Debye-Ang):
   XX=            -11.6125   YY=            -44.4568   ZZ=            -53.2083
   XY=              3.0132   XZ=              1.6862   YZ=              0.0025

 Normal termination of Gaussian 16 at Sun Jul 11 16:30:34 2021.
