 Gaussian 16, Revision A.03,

 ---------------------------------------------------------------
 #p b3lyp/6-31G(d) opt freq scrf=(iefpcm,read,solvent=n-octanol)
 ---------------------------------------------------------------

 ---------------------------------------------
 SET_328_BBB301_conf1.geo_090_105_255 geometry
 ---------------------------------------------
 Symbolic Z-matrix:
 Charge =  1 Multiplicity = 1

 SCF Done:  E(RB3LYP) =  -788.782765747     A.U. after   12 cycles
 SCF Done:  E(RB3LYP) =  -788.840981364     A.U. after   12 cycles
 SCF Done:  E(RB3LYP) =  -788.837322398     A.U. after   13 cycles
 SCF Done:  E(RB3LYP) =  -788.878312099     A.U. after   11 cycles
 SCF Done:  E(RB3LYP) =  -788.887315614     A.U. after   11 cycles
 SCF Done:  E(RB3LYP) =  -788.890107194     A.U. after   13 cycles
 SCF Done:  E(RB3LYP) =  -788.899494313     A.U. after   11 cycles
 SCF Done:  E(RB3LYP) =  -788.903014265     A.U. after   11 cycles
 SCF Done:  E(RB3LYP) =  -788.904635741     A.U. after   12 cycles
 SCF Done:  E(RB3LYP) =  -788.906161257     A.U. after   11 cycles
 SCF Done:  E(RB3LYP) =  -788.909683151     A.U. after   10 cycles
 SCF Done:  E(RB3LYP) =  -788.911528021     A.U. after   11 cycles
 SCF Done:  E(RB3LYP) =  -788.912092605     A.U. after    5 cycles
 SCF Done:  E(RB3LYP) =  -788.912025637     A.U. after    9 cycles
 SCF Done:  E(RB3LYP) =  -788.912017429     A.U. after    8 cycles
 SCF Done:  E(RB3LYP) =  -788.912025241     A.U. after    8 cycles
 Optimization completed.
    -- Stationary point found.
 Normal termination of Gaussian 16 at Sun Jul 18 18:27:18 2021.

 --------------------------------------------------------------------
 #P Geom=AllCheck Guess=TCheck SCRF=Check GenChk RB3LYP/6-31G(d) Freq
 --------------------------------------------------------------------

 Structure from the checkpoint file:  "SET_328_BBB301_conf1.geo_090_105_255.chk"
 ---------------------------------------------
 SET_328_BBB301_conf1.geo_090_105_255 geometry
 ---------------------------------------------
 Charge =  1 Multiplicity = 1

 SCF Done:  E(RB3LYP) =  -788.912025241     A.U. after    1 cycles

  Exact polarizability: 203.777  21.596 175.407 -26.290  16.094 165.682
 Approx polarizability: 232.444  31.037 217.354 -37.207  24.311 206.850

 ******    1 imaginary frequencies (negative Signs) ******

                      1                      2                      3
                      A                      A                      A
 Frequencies --     -8.7548                58.3045                66.5466
 Red. masses --      4.5242                 4.4590                 4.1938
 Frc consts  --      0.0002                 0.0089                 0.0109
 IR Inten    --      0.5690                 0.6016                 1.3029

                      4                      5                      6
                      A                      A                      A
 Frequencies --     74.2911               115.4009               127.3336
 Red. masses --      3.1034                 4.5807                 5.2288
 Frc consts  --      0.0101                 0.0359                 0.0500
 IR Inten    --      2.9405                 2.3083                 0.2095

                      7                      8                      9
                      A                      A                      A
 Frequencies --    137.4318               181.5947               196.1667
 Red. masses --      4.4797                 3.3367                 2.5940
 Frc consts  --      0.0499                 0.0648                 0.0588
 IR Inten    --     23.5399                 5.5695                11.5485

                     10                     11                     12
                      A                      A                      A
 Frequencies --    214.8449               254.8645               273.0316
 Red. masses --      3.5712                 3.0535                 1.2945
 Frc consts  --      0.0971                 0.1169                 0.0569
 IR Inten    --      3.0940                15.5343                33.4409

                     13                     14                     15
                      A                      A                      A
 Frequencies --    279.8691               292.3105               302.7160
 Red. masses --      1.9483                 1.2037                 1.0641
 Frc consts  --      0.0899                 0.0606                 0.0575
 IR Inten    --     24.0377               115.9199                 8.7864

                     16                     17                     18
                      A                      A                      A
 Frequencies --    335.1302               339.8411               346.9075
 Red. masses --      1.7856                 1.4898                 2.0795
 Frc consts  --      0.1182                 0.1014                 0.1474
 IR Inten    --     20.2727                 4.3720                28.5128

                     19                     20                     21
                      A                      A                      A
 Frequencies --    353.3738               375.3025               378.3662
 Red. masses --      3.5238                 1.6556                 1.8657
 Frc consts  --      0.2593                 0.1374                 0.1574
 IR Inten    --      5.2354                62.1743                62.2191

                     22                     23                     24
                      A                      A                      A
 Frequencies --    411.1173               411.8219               436.9999
 Red. masses --      1.1081                 3.7793                 2.5104
 Frc consts  --      0.1103                 0.3776                 0.2825
 IR Inten    --    163.9504                 5.1319                12.2588

                     25                     26                     27
                      A                      A                      A
 Frequencies --    459.2115               471.2190               493.2716
 Red. masses --      3.8888                 2.5446                 2.5171
 Frc consts  --      0.4832                 0.3329                 0.3608
 IR Inten    --      0.6966                 1.6859                 2.7941

                     28                     29                     30
                      A                      A                      A
 Frequencies --    502.6670               554.4659               572.4493
 Red. masses --      3.2146                 3.6454                 4.2420
 Frc consts  --      0.4786                 0.6603                 0.8190
 IR Inten    --      3.2829                16.4981                 9.8716

                     31                     32                     33
                      A                      A                      A
 Frequencies --    622.1330               665.2709               732.7302
 Red. masses --      4.7114                 5.2713                 3.9206
 Frc consts  --      1.0744                 1.3746                 1.2402
 IR Inten    --     37.7895                 1.5690                 1.7886

                     34                     35                     36
                      A                      A                      A
 Frequencies --    754.7367               788.7719               794.0026
 Red. masses --      4.5579                 3.2562                 4.2675
 Frc consts  --      1.5297                 1.1936                 1.5851
 IR Inten    --      5.6939                 3.8663                10.7596

                     37                     38                     39
                      A                      A                      A
 Frequencies --    835.0769               876.6073               879.3136
 Red. masses --      1.4972                 1.5259                 2.1673
 Frc consts  --      0.6151                 0.6909                 0.9873
 IR Inten    --     41.5075                11.5125                14.0649

                     40                     41                     42
                      A                      A                      A
 Frequencies --    906.2417               925.4873               945.1906
 Red. masses --      2.8155                 1.5265                 1.6647
 Frc consts  --      1.3624                 0.7703                 0.8762
 IR Inten    --     31.2168                 7.3219                 1.1853

                     43                     44                     45
                      A                      A                      A
 Frequencies --    950.5293               959.6144               966.7727
 Red. masses --      1.7588                 2.3424                 1.3653
 Frc consts  --      0.9362                 1.2709                 0.7518
 IR Inten    --      5.7170                26.0813                 7.6937

                     46                     47                     48
                      A                      A                      A
 Frequencies --    969.8512               992.2102              1003.0239
 Red. masses --      1.5642                 1.2206                 2.0153
 Frc consts  --      0.8669                 0.7080                 1.1945
 IR Inten    --     24.2723                 0.3790                 6.5681

                     49                     50                     51
                      A                      A                      A
 Frequencies --   1034.1512              1057.0581              1083.7260
 Red. masses --      2.0603                 5.9122                 2.0922
 Frc consts  --      1.2982                 3.8922                 1.4478
 IR Inten    --     18.9031               101.7534                25.5541

                     52                     53                     54
                      A                      A                      A
 Frequencies --   1086.2007              1119.3043              1140.9178
 Red. masses --      1.6000                 2.0760                 2.0864
 Frc consts  --      1.1122                 1.5324                 1.6001
 IR Inten    --     15.0904                34.3623               206.3329

                     55                     56                     57
                      A                      A                      A
 Frequencies --   1183.9003              1202.8381              1214.7845
 Red. masses --      1.5294                 1.3161                 1.1143
 Frc consts  --      1.2630                 1.1219                 0.9688
 IR Inten    --     59.1831                32.4401                17.4696

                     58                     59                     60
                      A                      A                      A
 Frequencies --   1222.7505              1226.4445              1235.9447
 Red. masses --      1.4733                 1.8268                 1.1840
 Frc consts  --      1.2978                 1.6190                 1.0656
 IR Inten    --     38.0795                97.3744                90.3290

                     61                     62                     63
                      A                      A                      A
 Frequencies --   1267.8458              1275.6695              1320.5332
 Red. masses --      1.9577                 2.5471                 3.0998
 Frc consts  --      1.8541                 2.4422                 3.1848
 IR Inten    --     24.5307                30.0563               108.5127

                     64                     65                     66
                      A                      A                      A
 Frequencies --   1327.4249              1330.4115              1350.1884
 Red. masses --      1.8560                 1.6697                 1.5472
 Frc consts  --      1.9269                 1.7412                 1.6618
 IR Inten    --     63.6924                33.0998                25.2099

                     67                     68                     69
                      A                      A                      A
 Frequencies --   1384.0049              1390.2284              1394.4401
 Red. masses --      2.3010                 1.2725                 1.5251
 Frc consts  --      2.5968                 1.4491                 1.7472
 IR Inten    --     58.6672                15.2632                36.7859

                     70                     71                     72
                      A                      A                      A
 Frequencies --   1418.9472              1435.6488              1438.6051
 Red. masses --      1.3538                 1.2371                 1.2604
 Frc consts  --      1.6060                 1.5023                 1.5368
 IR Inten    --     22.8976                94.0323                25.7629

                     73                     74                     75
                      A                      A                      A
 Frequencies --   1447.6637              1453.4841              1472.0857
 Red. masses --      1.3511                 1.2687                 1.3689
 Frc consts  --      1.6683                 1.5792                 1.7477
 IR Inten    --     28.3446                49.5794                64.1573

                     76                     77                     78
                      A                      A                      A
 Frequencies --   1479.5961              1493.1302              1516.3702
 Red. masses --      2.3320                 1.1902                 1.1048
 Frc consts  --      3.0079                 1.5633                 1.4968
 IR Inten    --     11.4281               122.5641                 1.4108

                     79                     80                     81
                      A                      A                      A
 Frequencies --   1519.2874              1521.1692              1526.9567
 Red. masses --      1.0468                 1.0566                 1.0680
 Frc consts  --      1.4236                 1.4405                 1.4671
 IR Inten    --      0.5174                 2.7122                13.7144

                     82                     83                     84
                      A                      A                      A
 Frequencies --   1529.4328              1543.6125              1546.6785
 Red. masses --      1.0538                 1.0752                 1.0649
 Frc consts  --      1.4523                 1.5095                 1.5009
 IR Inten    --     13.2036                 8.4794                 5.9450

                     85                     86                     87
                      A                      A                      A
 Frequencies --   1559.3088              1561.9692              1653.8437
 Red. masses --      1.0764                 2.6827                 6.2086
 Frc consts  --      1.5420                 3.8562                10.0053
 IR Inten    --     26.9250                86.7213                15.0773

                     88                     89                     90
                      A                      A                      A
 Frequencies --   1672.3227              1714.4836              3029.9824
 Red. masses --      6.1256                 1.0680                 1.0697
 Frc consts  --     10.0935                 1.8497                 5.7863
 IR Inten    --     74.4352                94.4075                87.2732

                     91                     92                     93
                      A                      A                      A
 Frequencies --   3060.2246              3082.0437              3086.6203
 Red. masses --      1.0853                 1.0356                 1.0358
 Frc consts  --      5.9886                 5.7957                 5.8143
 IR Inten    --     31.7270                15.3733                17.2412

                     94                     95                     96
                      A                      A                      A
 Frequencies --   3091.1431              3125.7900              3149.9000
 Red. masses --      1.0373                 1.0945                 1.0668
 Frc consts  --      5.8399                 6.3004                 6.2363
 IR Inten    --      2.8076                29.0692                 3.4016

                     97                     98                     99
                      A                      A                      A
 Frequencies --   3153.5542              3158.4301              3160.8475
 Red. masses --      1.1033                 1.1036                 1.1026
 Frc consts  --      6.4648                 6.4865                 6.4904
 IR Inten    --     28.6963                 6.7939                 4.8055

                    100                    101                    102
                      A                      A                      A
 Frequencies --   3161.5219              3166.7296              3173.1492
 Red. masses --      1.0947                 1.1023                 1.1010
 Frc consts  --      6.4466                 6.5131                 6.5315
 IR Inten    --     45.0615                10.0847                28.4164

                    103                    104                    105
                      A                      A                      A
 Frequencies --   3176.2385              3210.8403              3212.6645
 Red. masses --      1.0888                 1.0895                 1.1089
 Frc consts  --      6.4719                 6.6181                 6.7430
 IR Inten    --     23.4066                18.6125                11.2515

                    106                    107                    108
                      A                      A                      A
 Frequencies --   3240.4369              3389.3576              3436.9757
 Red. masses --      1.0918                 1.0546                 1.0906
 Frc consts  --      6.7549                 7.1381                 7.5904
 IR Inten    --      3.9833                99.5531               125.7291

                    109                    110                    111
                      A                      A                      A
 Frequencies --   3729.2084              3746.1383              3758.6217
 Red. masses --      1.0662                 1.0664                 1.0671
 Frc consts  --      8.7361                 8.8176                 8.8817
 IR Inten    --    138.2690                29.6506               116.8046

 - Thermochemistry -
 -------------------
 Temperature   298.150 Kelvin.  Pressure   1.00000 Atm.
 Atom     1 has atomic number  6 and mass  12.00000

 Molecular mass:   240.15997 amu.
 Principal axes and moments of inertia in atomic units:
                           1         2         3
     Eigenvalues --  2461.767378021.813988663.63402
           X            0.99994  -0.01041   0.00277
           Y            0.01039   0.99993   0.00620
           Z           -0.00283  -0.00617   0.99998
 This molecule is an asymmetric top.
 Rotational symmetry number  1.
 Warning -- assumption of classical behavior for rotation
           may cause significant error
 Rotational temperatures (Kelvin)      0.03518     0.01080     0.01000
 Rotational constants (GHZ):           0.73311     0.22498     0.20831
    1 imaginary frequencies ignored.
 Zero-point vibrational energy     911782.9 (Joules/Mol)
                                  217.92134 (Kcal/Mol)
 Warning -- explicit consideration of  29 degrees of freedom as
           vibrations may cause significant error
 Vibrational temperatures:     83.89    95.75   106.89   166.04   183.20
          (Kelvin)            197.73   261.27   282.24   309.11   366.69
                              392.83   402.67   420.57   435.54   482.18
                              488.96   499.12   508.43   539.98   544.38
                              591.51   592.52   628.75   660.70   677.98
                              709.71   723.23   797.75   823.63   895.11
                              957.18  1054.24  1085.90  1134.87  1142.39
                             1201.49  1261.24  1265.14  1303.88  1331.57
                             1359.92  1367.60  1380.67  1390.97  1395.40
                             1427.57  1443.13  1487.91  1520.87  1559.24
                             1562.80  1610.43  1641.53  1703.37  1730.62
                             1747.80  1759.27  1764.58  1778.25  1824.15
                             1835.40  1899.95  1909.87  1914.17  1942.62
                             1991.27  2000.23  2006.29  2041.55  2065.58
                             2069.83  2082.87  2091.24  2118.00  2128.81
                             2148.28  2181.72  2185.92  2188.62  2196.95
                             2200.51  2220.91  2225.33  2243.50  2247.33
                             2379.51  2406.10  2466.76  4359.47  4402.98
                             4434.37  4440.96  4447.47  4497.31  4532.00
                             4537.26  4544.28  4547.75  4548.72  4556.22
                             4565.45  4569.90  4619.68  4622.31  4662.27
                             4876.53  4945.04  5365.50  5389.86  5407.82

 Zero-point correction=                           0.347280 (Hartree/Particle)
 Thermal correction to Energy=                    0.364462
 Thermal correction to Enthalpy=                  0.365406
 Thermal correction to Gibbs Free Energy=         0.303884
 Sum of electronic and zero-point Energies=           -788.564745
 Sum of electronic and thermal Energies=              -788.547563
 Sum of electronic and thermal Enthalpies=            -788.546619
 Sum of electronic and thermal Free Energies=         -788.608141

                     E (Thermal)             CV                S
                      KCal/Mol        Cal/Mol-Kelvin    Cal/Mol-Kelvin
 Total                  228.703             68.524            129.483
 Electronic               0.000              0.000              0.000
 Translational            0.889              2.981             42.330
 Rotational               0.889              2.981             33.503
 Vibrational            226.926             62.562             53.651
 Vibration     1          0.596              1.974              4.514
 Vibration     2          0.598              1.970              4.253
 Vibration     3          0.599              1.966              4.036
 Vibration     4          0.608              1.937              3.176
 Vibration     5          0.611              1.926              2.986
 Vibration     6          0.614              1.916              2.839
 Vibration     7          0.630              1.865              2.312
 Vibration     8          0.636              1.845              2.169
 Vibration     9          0.645              1.818              2.002
 Vibration    10          0.665              1.755              1.697
 Vibration    11          0.676              1.723              1.577
 Vibration    12          0.680              1.711              1.534
 Vibration    13          0.688              1.688              1.461
 Vibration    14          0.694              1.669              1.402
 Vibration    15          0.716              1.605              1.235
 Vibration    16          0.720              1.596              1.213
 Vibration    17          0.725              1.582              1.180
 Vibration    18          0.730              1.568              1.151
 Vibration    19          0.746              1.523              1.058
 Vibration    20          0.749              1.516              1.046
 Vibration    21          0.775              1.446              0.923
 Vibration    22          0.776              1.445              0.920
 Vibration    23          0.797              1.390              0.836
 Vibration    24          0.817              1.341              0.768
 Vibration    25          0.828              1.314              0.734
 Vibration    26          0.849              1.265              0.675
 Vibration    27          0.858              1.244              0.651
 Vibration    28          0.910              1.130              0.535
 Vibration    29          0.929              1.091              0.500

                           ! Non-Optimized Parameters !
 Normal termination of Gaussian 16 at Sun Jul 18 19:06:14 2021.

 ----------------------------------------------------------------------
 #p b3lyp/6-31G(d) scrf=(iefpcm,read,solvent=n-octanol) geom=allcheck g
 uess=read
 ----------------------------------------------------------------------

 Structure from the checkpoint file:  "SET_328_BBB301_conf1.geo_090_105_255.chk"
 ---------------------------------------------
 SET_328_BBB301_conf1.geo_090_105_255 geometry
 ---------------------------------------------
 Charge =  1 Multiplicity = 1

 SCF Done:  E(RB3LYP) =  -788.914192236     A.U. after    1 cycles
 Normal termination of Gaussian 16 at Sun Jul 18 19:07:12 2021.

 -----------------------------
 #p B3LYP/6-31G* geom=allcheck
 -----------------------------

 Structure from the checkpoint file:  "SET_328_BBB301_conf1.geo_090_105_255.chk"
 ---------------------------------------------
 SET_328_BBB301_conf1.geo_090_105_255 geometry
 ---------------------------------------------
 Charge =  1 Multiplicity = 1

 SCF Done:  E(RB3LYP) =  -788.813432459     A.U. after   14 cycles
 Normal termination of Gaussian 16 at Sun Jul 18 19:09:42 2021.
 Gaussian 16:  ES64L-G16RevA.03 25-Dec-2016

 --------------------------------------------------------
 #p mp2/aug-cc-pVDZ scf=tight maxdisk=180GB geom=allcheck
 --------------------------------------------------------

 Structure from the checkpoint file:  "SET_328_BBB301_conf1.geo_090_105_255.chk"
 ---------------------------------------------
 SET_328_BBB301_conf1.geo_090_105_255 geometry
 ---------------------------------------------
 Charge =  1 Multiplicity = 1

                         Standard orientation:
 ---------------------------------------------------------------------
 Center     Atomic      Atomic             Coordinates (Angstroms)
 Number     Number       Type             X           Y           Z
 ---------------------------------------------------------------------
      1          6           0       -3.714460    0.754803   -1.909359
      2          1           0       -4.021302   -0.250830   -2.208471
      3          1           0       -2.867198    1.061322   -2.529530
      4          1           0       -4.543875    1.432423   -2.123860
      5          6           0       -3.382502    0.823225   -0.413332
      6          6           0       -2.880098    2.219030   -0.024627
      7          1           0       -3.657108    2.948770   -0.257953
      8          1           0       -1.984566    2.499132   -0.586080
      9          1           0       -2.664365    2.300186    1.043750
     10          6           0       -4.588251    0.397936    0.434027
     11          1           0       -5.411705    1.086841    0.237790
     12          1           0       -4.378133    0.434884    1.505650
     13          1           0       -4.929501   -0.607896    0.175788
     14          7           0       -2.233928   -0.185797   -0.185932
     15          1           0       -1.455203    0.062790   -0.812741
     16          6           0       -1.699822   -0.331591    1.209823
     17          1           0       -2.537794   -0.603829    1.849020
     18          1           0       -1.304491    0.631713    1.526993
     19          6           0       -0.620444   -1.429563    1.237924
     20          8           0       -1.163617   -2.616240    0.672011
     21          1           0       -1.644769   -3.099338    1.362936
     22          1           0       -0.364746   -1.585172    2.292424
     23          6           0        0.627857   -1.029829    0.467849
     24          6           0        1.318710    0.144804    0.801045
     25          1           0        0.959718    0.776435    1.611192
     26          6           0        2.471160    0.545238    0.129797
     27          6           0        3.211681    1.793845    0.534796
     28          8           0        4.421475    1.526350    1.240497
     29          1           0        4.182267    1.030549    2.039574
     30          1           0        2.540954    2.429055    1.129336
     31          1           0        3.514230    2.358451   -0.350066
     32          6           0        2.950348   -0.264552   -0.917549
     33          8           0        4.065552    0.161614   -1.567355
     34          1           0        4.288622   -0.462028   -2.279263
     35          6           0        2.277014   -1.437595   -1.261536
     36          1           0        2.651442   -2.054823   -2.071437
     37          6           0        1.127709   -1.819159   -0.569842
     38          1           0        0.615383   -2.737118   -0.832289
     39          1           0       -2.531062   -1.124283   -0.496560
 ---------------------------------------------------------------------

 SCF Done:  E(RHF) =  -784.029468051     A.U. after   16 cycles
 E2 =    -0.2635559652D+01 EUMP2 =    -0.78666502770333D+03

 The electronic state is 1-A.
 Alpha  occ. eigenvalues --  -20.72628 -20.69913 -20.65097 -15.84314 -11.46186
 Alpha  occ. eigenvalues --  -11.45297 -11.44740 -11.42014 -11.38013 -11.37942
 Alpha  occ. eigenvalues --  -11.37925 -11.37795 -11.36681 -11.36445 -11.36188
 Alpha  occ. eigenvalues --  -11.35100 -11.34956  -1.52774  -1.50957  -1.46573
 Alpha  occ. eigenvalues --   -1.44294  -1.27582  -1.24718  -1.18399  -1.15337
 Alpha  occ. eigenvalues --   -1.12293  -1.10227  -1.09508  -1.02468  -1.01500
 Alpha  occ. eigenvalues --   -0.95474  -0.95117  -0.92264  -0.90101  -0.86752
 Alpha  occ. eigenvalues --   -0.84271  -0.82984  -0.80355  -0.79816  -0.78558
 Alpha  occ. eigenvalues --   -0.76407  -0.75728  -0.75110  -0.74241  -0.73261
 Alpha  occ. eigenvalues --   -0.71008  -0.70608  -0.69846  -0.69246  -0.69048
 Alpha  occ. eigenvalues --   -0.68182  -0.67656  -0.67315  -0.67231  -0.66853
 Alpha  occ. eigenvalues --   -0.64062  -0.63828  -0.63255  -0.62223  -0.60505
 Alpha  occ. eigenvalues --   -0.58678  -0.57899  -0.53547  -0.45520  -0.42360
 Alpha virt. eigenvalues --   -0.07358  -0.06313  -0.05776  -0.04882  -0.03888
 Alpha virt. eigenvalues --   -0.03798  -0.03610  -0.03345  -0.02924  -0.02373
 Alpha virt. eigenvalues --   -0.01533  -0.01192  -0.01023  -0.00932  -0.00636

 Mulliken charges:
               1
     1  C    1.342706
     2  H   -0.003185
     3  H   -0.002190
     4  H    0.027131
     5  C   -3.429261
     6  C    1.278671
     7  H   -0.024646
     8  H   -0.002470
     9  H   -0.026279
    10  C    1.308490
    11  H    0.004738
    12  H   -0.041035
    13  H   -0.019293
    14  N   -0.583661
    15  H    0.211732
    16  C    0.856077
    17  H   -0.218141
    18  H   -0.383056
    19  C    0.642995
    20  O   -0.932594
    21  H    0.254031
    22  H   -0.082012
    23  C    0.786461
    24  C    0.620044
    25  H   -0.837876
    26  C   -0.130526
    27  C    1.371144
    28  O   -0.702776
    29  H    0.170337
    30  H   -0.239324
    31  H   -0.158615
    32  C    1.188599
    33  O   -0.980991
    34  H    0.242696
    35  C    0.404475
    36  H   -0.634903
    37  C    0.168776
    38  H   -0.708034
    39  H    0.261767
 Sum of Mulliken charges =   1.00000

 Dipole moment (field-independent basis, Debye):
    X=            -11.3069    Y=             -1.3807    Z=              0.3308  Tot=             11.3957
 Quadrupole moment (field-independent basis, Debye-Ang):
   XX=            -69.7238   YY=            -91.5161   ZZ=            -83.2371
   XY=            -10.6971   XZ=             -6.6070   YZ=             -1.4222

 Normal termination of Gaussian 16 at Sun Jul 18 20:13:53 2021.
