 Gaussian 16, Revision A.03,

 ---------------------------------------------------------------
 #p b3lyp/6-31G(d) opt freq scrf=(iefpcm,read,solvent=n-octanol)
 ---------------------------------------------------------------

 -------------------------------------------
 SET_328_BBB6_conf1.geo_165_225_075 geometry
 -------------------------------------------
 Symbolic Z-matrix:
 Charge =  1 Multiplicity = 1

 SCF Done:  E(RB3LYP) =  -1096.81440466     A.U. after   13 cycles
 SCF Done:  E(RB3LYP) =  -1096.84739665     A.U. after   11 cycles
 SCF Done:  E(RB3LYP) =  -1096.85706764     A.U. after   12 cycles
 SCF Done:  E(RB3LYP) =  -1096.87050764     A.U. after   12 cycles
 SCF Done:  E(RB3LYP) =  -1096.87325833     A.U. after   11 cycles
 SCF Done:  E(RB3LYP) =  -1096.87467773     A.U. after   11 cycles
 SCF Done:  E(RB3LYP) =  -1096.87459102     A.U. after   11 cycles
 SCF Done:  E(RB3LYP) =  -1096.87554839     A.U. after   11 cycles
 SCF Done:  E(RB3LYP) =  -1096.87570222     A.U. after   10 cycles
 SCF Done:  E(RB3LYP) =  -1096.87606086     A.U. after   10 cycles
 SCF Done:  E(RB3LYP) =  -1096.87629037     A.U. after   11 cycles
 SCF Done:  E(RB3LYP) =  -1096.87629108     A.U. after    8 cycles
 SCF Done:  E(RB3LYP) =  -1096.87621135     A.U. after    9 cycles
 SCF Done:  E(RB3LYP) =  -1096.87619346     A.U. after    9 cycles
 SCF Done:  E(RB3LYP) =  -1096.87621540     A.U. after    9 cycles
 SCF Done:  E(RB3LYP) =  -1096.87621512     A.U. after    6 cycles
 Optimization completed.
    -- Stationary point found.
 Normal termination of Gaussian 16 at Sun Jul 18 18:27:12 2021.

 --------------------------------------------------------------------
 #P Geom=AllCheck Guess=TCheck SCRF=Check GenChk RB3LYP/6-31G(d) Freq
 --------------------------------------------------------------------

 Structure from the checkpoint file:  "SET_328_BBB6_conf1.geo_165_225_075.chk"
 -------------------------------------------
 SET_328_BBB6_conf1.geo_165_225_075 geometry
 -------------------------------------------
 Charge =  1 Multiplicity = 1

 SCF Done:  E(RB3LYP) =  -1096.87621512     A.U. after    1 cycles

  Exact polarizability: 244.930  -5.825 181.814  18.779  23.654 131.693
 Approx polarizability: 274.778  -6.038 243.126  24.566  43.636 166.186

 ******    1 imaginary frequencies (negative Signs) ******

                      1                      2                      3
                      A                      A                      A
 Frequencies --    -99.5489                41.8279                45.8591
 Red. masses --      2.1445                 3.5863                 5.1007
 Frc consts  --      0.0125                 0.0037                 0.0063
 IR Inten    --      5.5165                 2.0436                 0.3751

                      4                      5                      6
                      A                      A                      A
 Frequencies --     74.0716               125.3096               148.7970
 Red. masses --      3.1980                 4.5616                 3.9170
 Frc consts  --      0.0103                 0.0422                 0.0511
 IR Inten    --      0.6863                 1.2548                 3.0685

                      7                      8                      9
                      A                      A                      A
 Frequencies --    158.9663               186.7886               193.8903
 Red. masses --      5.7463                 1.8827                 4.1173
 Frc consts  --      0.0856                 0.0387                 0.0912
 IR Inten    --      4.8158                 1.0339                 0.3389

                     10                     11                     12
                      A                      A                      A
 Frequencies --    216.0446               231.5531               271.2448
 Red. masses --      2.4089                 1.2722                 1.4500
 Frc consts  --      0.0662                 0.0402                 0.0629
 IR Inten    --      8.3976                 0.4266                 3.0586

                     13                     14                     15
                      A                      A                      A
 Frequencies --    282.5491               304.4716               306.2999
 Red. masses --      1.9560                 1.1256                 1.7615
 Frc consts  --      0.0920                 0.0615                 0.0974
 IR Inten    --     13.7286                 1.5682                 5.1697

                     16                     17                     18
                      A                      A                      A
 Frequencies --    338.9974               356.2934               364.3355
 Red. masses --      2.9276                 2.7609                 3.1214
 Frc consts  --      0.1982                 0.2065                 0.2441
 IR Inten    --     10.1891                 1.0461                33.3559

                     19                     20                     21
                      A                      A                      A
 Frequencies --    389.7439               417.0967               430.8640
 Red. masses --      3.1122                 7.4218                 2.4744
 Frc consts  --      0.2785                 0.7607                 0.2706
 IR Inten    --      0.5657                 6.9156                 7.3346

                     22                     23                     24
                      A                      A                      A
 Frequencies --    439.0324               472.6487               491.0797
 Red. masses --      2.6624                 4.0450                 2.4570
 Frc consts  --      0.3024                 0.5324                 0.3491
 IR Inten    --      3.8382                 2.3672                 4.2169

                     25                     26                     27
                      A                      A                      A
 Frequencies --    515.2597               550.4015               656.2232
 Red. masses --      4.5906                 3.6919                 5.5173
 Frc consts  --      0.7181                 0.6590                 1.3999
 IR Inten    --      6.2181                44.5833                 0.5943

                     28                     29                     30
                      A                      A                      A
 Frequencies --    680.3021               704.3005               736.3582
 Red. masses --      2.8555                 5.0185                 2.8608
 Frc consts  --      0.7786                 1.4667                 0.9139
 IR Inten    --      8.9451                13.5106                30.5747

                     31                     32                     33
                      A                      A                      A
 Frequencies --    757.4209               791.3026               814.7196
 Red. masses --      3.4114                 3.7821                 1.7148
 Frc consts  --      1.1531                 1.3953                 0.6706
 IR Inten    --     24.4689                93.9531                20.1200

                     34                     35                     36
                      A                      A                      A
 Frequencies --    855.4370               901.8601               924.3723
 Red. masses --      2.5627                 1.7712                 1.4013
 Frc consts  --      1.1049                 0.8488                 0.7055
 IR Inten    --      9.3761                17.1003                 6.9791

                     37                     38                     39
                      A                      A                      A
 Frequencies --    930.5234               942.9644               949.0269
 Red. masses --      2.2111                 1.3941                 1.6326
 Frc consts  --      1.1280                 0.7304                 0.8663
 IR Inten    --      6.2257                 5.8977                 1.9902

                     40                     41                     42
                      A                      A                      A
 Frequencies --    962.8103               995.6664               999.8008
 Red. masses --      1.6444                 1.2231                 1.3205
 Frc consts  --      0.8981                 0.7144                 0.7777
 IR Inten    --      3.0492                 1.8325                 0.0256

                     43                     44                     45
                      A                      A                      A
 Frequencies --   1010.6320              1025.9282              1055.4724
 Red. masses --      5.0702                 3.3196                 1.9020
 Frc consts  --      3.0511                 2.0586                 1.2484
 IR Inten    --     16.4057                25.7498                12.8951

                     46                     47                     48
                      A                      A                      A
 Frequencies --   1068.6725              1095.7314              1106.3114
 Red. masses --      1.4314                 2.6835                 1.5176
 Frc consts  --      0.9632                 1.8983                 1.0944
 IR Inten    --      6.2134                10.6806                 1.7931

                     49                     50                     51
                      A                      A                      A
 Frequencies --   1110.5355              1129.9482              1154.0702
 Red. masses --      2.0586                 1.5452                 2.0323
 Frc consts  --      1.4959                 1.1624                 1.5948
 IR Inten    --     38.5468                 0.7759                79.2958

                     52                     53                     54
                      A                      A                      A
 Frequencies --   1205.7662              1226.5468              1247.0997
 Red. masses --      1.1340                 2.0652                 1.8067
 Frc consts  --      0.9714                 1.8305                 1.6555
 IR Inten    --      2.8549                78.3565                85.0416

                     55                     56                     57
                      A                      A                      A
 Frequencies --   1270.6631              1285.2194              1321.5941
 Red. masses --      2.6955                 2.5781                 1.4707
 Frc consts  --      2.5642                 2.5090                 1.5135
 IR Inten    --    294.9752                11.3343                 3.2381

                     58                     59                     60
                      A                      A                      A
 Frequencies --   1339.8502              1371.2015              1392.1678
 Red. masses --      1.8320                 5.9933                 1.2711
 Frc consts  --      1.9377                 6.6393                 1.4515
 IR Inten    --     50.5794                 9.4027                26.2581

                     61                     62                     63
                      A                      A                      A
 Frequencies --   1436.7436              1444.4787              1448.1656
 Red. masses --      1.2293                 1.2506                 1.2274
 Frc consts  --      1.4951                 1.5374                 1.5166
 IR Inten    --      7.4819                26.6173                42.0735

                     64                     65                     66
                      A                      A                      A
 Frequencies --   1459.4284              1468.4650              1480.1766
 Red. masses --      1.5505                 1.3755                 1.5066
 Frc consts  --      1.9458                 1.7475                 1.9447
 IR Inten    --     47.7678                73.8478                53.4220

                     67                     68                     69
                      A                      A                      A
 Frequencies --   1502.1817              1508.8780              1511.1581
 Red. masses --      1.0887                 1.0469                 1.0509
 Frc consts  --      1.4474                 1.4043                 1.4139
 IR Inten    --     37.4725                 1.3080                15.8555

                     70                     71                     72
                      A                      A                      A
 Frequencies --   1511.5870              1521.0780              1525.2554
 Red. masses --      1.0528                 1.9024                 1.1160
 Frc consts  --      1.4173                 2.5933                 1.5297
 IR Inten    --      2.7455                23.9378                24.5743

                     73                     74                     75
                      A                      A                      A
 Frequencies --   1530.8186              1541.8009              1543.8759
 Red. masses --      1.0848                 1.1185                 1.0620
 Frc consts  --      1.4978                 1.5666                 1.4914
 IR Inten    --     12.8628                16.6886                18.7034

                     76                     77                     78
                      A                      A                      A
 Frequencies --   1626.4713              1633.0747              1650.1970
 Red. masses --      4.8051                 1.1796                 4.9587
 Frc consts  --      7.4894                 1.8535                 7.9560
 IR Inten    --     87.0096               223.0658                 8.8315

                     79                     80                     81
                      A                      A                      A
 Frequencies --   1658.0847              1758.7661              3079.1304
 Red. masses --      1.1009                 8.4402                 1.0368
 Frc consts  --      1.7832                15.3823                 5.7916
 IR Inten    --     53.1566               193.8398                16.4130

                     82                     83                     84
                      A                      A                      A
 Frequencies --   3080.1645              3087.3030              3098.6831
 Red. masses --      1.0361                 1.0378                 1.0364
 Frc consts  --      5.7917                 5.8279                 5.8629
 IR Inten    --     14.7594                 4.3859                11.6168

                     85                     86                     87
                      A                      A                      A
 Frequencies --   3148.0682              3149.9516              3154.5732
 Red. masses --      1.1028                 1.1026                 1.1001
 Frc consts  --      6.4395                 6.4460                 6.4499
 IR Inten    --     30.0663                 4.1846                22.3756

                     88                     89                     90
                      A                      A                      A
 Frequencies --   3159.3531              3163.5522              3165.2131
 Red. masses --      1.1024                 1.1012                 1.0909
 Frc consts  --      6.4831                 6.4931                 6.4394
 IR Inten    --      9.6396                12.4689                17.4296

                     91                     92                     93
                      A                      A                      A
 Frequencies --   3170.1192              3180.3193              3189.6529
 Red. masses --      1.1034                 1.0997                 1.1044
 Frc consts  --      6.5331                 6.5531                 6.6198
 IR Inten    --     15.7931                13.9253                12.6327

                     94                     95                     96
                      A                      A                      A
 Frequencies --   3228.2420              3240.2616              3246.9321
 Red. masses --      1.0877                 1.0913                 1.0965
 Frc consts  --      6.6788                 6.7507                 6.8109
 IR Inten    --      3.5373                 6.9864                 5.6768

                     97                     98                     99
                      A                      A                      A
 Frequencies --   3259.2179              3321.7839              3448.9759
 Red. masses --      1.0916                 1.0674                 1.0808
 Frc consts  --      6.8316                 6.9392                 7.5751
 IR Inten    --      4.0307               140.8264               162.2562

 - Thermochemistry -
 -------------------
 Temperature   298.150 Kelvin.  Pressure   1.00000 Atm.
 Atom     1 has atomic number  6 and mass  12.00000

 Molecular mass:   240.11552 amu.
 Principal axes and moments of inertia in atomic units:
                           1         2         3
     Eigenvalues --  1815.759978673.908199149.34919
           X            0.99991   0.01283  -0.00342
           Y           -0.01296   0.99910  -0.04040
           Z            0.00290   0.04044   0.99918
 This molecule is an asymmetric top.
 Rotational symmetry number  1.
 Warning -- assumption of classical behavior for rotation
           may cause significant error
 Rotational temperatures (Kelvin)      0.04770     0.00999     0.00947
 Rotational constants (GHZ):           0.99393     0.20807     0.19725
    1 imaginary frequencies ignored.
 Zero-point vibrational energy     799740.1 (Joules/Mol)
                                  191.14248 (Kcal/Mol)
 Warning -- explicit consideration of  25 degrees of freedom as
           vibrations may cause significant error
 Vibrational temperatures:     60.18    65.98   106.57   180.29   214.09
          (Kelvin)            228.72   268.75   278.96   310.84   333.15
                              390.26   406.53   438.07   440.70   487.74
                              512.63   524.20   560.75   600.11   619.92
                              631.67   680.04   706.55   741.34   791.90
                              944.16   978.80  1013.33  1059.46  1089.76
                             1138.51  1172.20  1230.78  1297.58  1329.97
                             1338.82  1356.72  1365.44  1385.27  1432.54
                             1438.49  1454.07  1476.08  1518.59  1537.58
                             1576.51  1591.74  1597.81  1625.74  1660.45
                             1734.83  1764.73  1794.30  1828.20  1849.14
                             1901.48  1927.75  1972.85  2003.02  2067.15
                             2078.28  2083.59  2099.79  2112.79  2129.64
                             2161.30  2170.94  2174.22  2174.84  2188.49
                             2194.50  2202.51  2218.31  2221.29  2340.13
                             2349.63  2374.27  2385.61  2530.47  4430.18
                             4431.67  4441.94  4458.31  4529.37  4532.08
                             4538.73  4545.60  4551.65  4554.04  4561.09
                             4575.77  4589.20  4644.72  4662.01  4671.61
                             4689.29  4779.31  4962.31

 Zero-point correction=                           0.304605 (Hartree/Particle)
 Thermal correction to Energy=                    0.320493
 Thermal correction to Enthalpy=                  0.321437
 Thermal correction to Gibbs Free Energy=         0.261562
 Sum of electronic and zero-point Energies=          -1096.571610
 Sum of electronic and thermal Energies=             -1096.555722
 Sum of electronic and thermal Enthalpies=           -1096.554778
 Sum of electronic and thermal Free Energies=        -1096.614654

                     E (Thermal)             CV                S
                      KCal/Mol        Cal/Mol-Kelvin    Cal/Mol-Kelvin
 Total                  201.113             61.873            126.019
 Electronic               0.000              0.000              0.000
 Translational            0.889              2.981             42.329
 Rotational               0.889              2.981             33.332
 Vibrational            199.335             55.911             50.358
 Vibration     1          0.594              1.980              5.171
 Vibration     2          0.595              1.979              4.988
 Vibration     3          0.599              1.966              4.042
 Vibration     4          0.610              1.928              3.017
 Vibration     5          0.618              1.904              2.688
 Vibration     6          0.621              1.893              2.562
 Vibration     7          0.632              1.858              2.259
 Vibration     8          0.635              1.848              2.190
 Vibration     9          0.645              1.817              1.992
 Vibration    10          0.653              1.793              1.867
 Vibration    11          0.675              1.726              1.588
 Vibration    12          0.682              1.706              1.518
 Vibration    13          0.695              1.665              1.392
 Vibration    14          0.697              1.662              1.382
 Vibration    15          0.719              1.598              1.217
 Vibration    16          0.732              1.562              1.138
 Vibration    17          0.738              1.546              1.104
 Vibration    18          0.758              1.492              1.001
 Vibration    19          0.780              1.433              0.902
 Vibration    20          0.792              1.403              0.856
 Vibration    21          0.799              1.385              0.830
 Vibration    22          0.830              1.311              0.730
 Vibration    23          0.847              1.270              0.681
 Vibration    24          0.870              1.216              0.621
 Vibration    25          0.906              1.139              0.543

                           ! Non-Optimized Parameters !
 Normal termination of Gaussian 16 at Sun Jul 18 19:01:42 2021.

 ----------------------------------------------------------------------
 #p b3lyp/6-31G(d) scrf=(iefpcm,read,solvent=n-octanol) geom=allcheck g
 uess=read
 ----------------------------------------------------------------------

 Structure from the checkpoint file:  "SET_328_BBB6_conf1.geo_165_225_075.chk"
 -------------------------------------------
 SET_328_BBB6_conf1.geo_165_225_075 geometry
 -------------------------------------------
 Charge =  1 Multiplicity = 1

 SCF Done:  E(RB3LYP) =  -1096.87771327     A.U. after    1 cycles
 Normal termination of Gaussian 16 at Sun Jul 18 19:02:36 2021.

 -----------------------------
 #p B3LYP/6-31G* geom=allcheck
 -----------------------------

 Structure from the checkpoint file:  "SET_328_BBB6_conf1.geo_165_225_075.chk"
 -------------------------------------------
 SET_328_BBB6_conf1.geo_165_225_075 geometry
 -------------------------------------------
 Charge =  1 Multiplicity = 1

 SCF Done:  E(RB3LYP) =  -1096.79128811     A.U. after   15 cycles
 Normal termination of Gaussian 16 at Sun Jul 18 19:04:54 2021.
 Gaussian 16:  ES64L-G16RevA.03 25-Dec-2016

 --------------------------------------------------------
 #p mp2/aug-cc-pVDZ scf=tight maxdisk=180GB geom=allcheck
 --------------------------------------------------------

 Structure from the checkpoint file:  "SET_328_BBB6_conf1.geo_165_225_075.chk"
 -------------------------------------------
 SET_328_BBB6_conf1.geo_165_225_075 geometry
 -------------------------------------------
 Charge =  1 Multiplicity = 1

                         Standard orientation:
 ---------------------------------------------------------------------
 Center     Atomic      Atomic             Coordinates (Angstroms)
 Number     Number       Type             X           Y           Z
 ---------------------------------------------------------------------
      1          6           0       -1.357571    1.770598   -1.826758
      2          1           0       -0.442841    2.357175   -1.740106
      3          1           0       -2.203434    2.459673   -1.831316
      4          1           0       -1.328621    1.232748   -2.776428
      5          6           0       -1.466234    0.792936   -0.651281
      6          7           0       -2.717898   -0.037237   -0.773455
      7          6           0       -3.449463   -0.439184    0.532102
      8          6           0       -2.441394   -1.121627    1.458207
      9          1           0       -1.623350   -0.452337    1.735993
     10          1           0       -2.019872   -2.022405    1.007901
     11          1           0       -2.949517   -1.411223    2.380633
     12          6           0       -4.031265    0.828377    1.171295
     13          1           0       -4.731398    1.340155    0.504486
     14          1           0       -3.252367    1.535451    1.469182
     15          1           0       -4.576803    0.546316    2.075035
     16          6           0       -4.556948   -1.415717    0.115934
     17          1           0       -5.107625   -1.726064    1.006388
     18          1           0       -4.150718   -2.317203   -0.352794
     19          1           0       -5.272766   -0.956771   -0.571457
     20          1           0       -2.432368   -0.897668   -1.273739
     21          1           0       -1.524173    1.337709    0.288957
     22          6           0       -0.268588   -0.173658   -0.662019
     23          8           0       -0.425516   -1.290494   -1.138444
     24          6           0        1.038020    0.291821   -0.150129
     25          6           0        2.132294   -0.572643   -0.308656
     26          1           0        1.985683   -1.528766   -0.793814
     27          6           0        3.376594   -0.182337    0.158502
     28         17           0        4.742866   -1.257300   -0.039646
     29          6           0        3.560891    1.052787    0.784878
     30          1           0        4.544095    1.336376    1.141313
     31          6           0        2.469201    1.906548    0.943394
     32          1           0        2.604644    2.864987    1.430851
     33          6           0        1.210806    1.532297    0.479954
     34          1           0        0.375128    2.207543    0.615308
     35          1           0       -3.391074    0.431831   -1.393209
 ---------------------------------------------------------------------

 SCF Done:  E(RHF) =  -1092.04785373     A.U. after   18 cycles
 E2 =    -0.2361158614D+01 EUMP2 =    -0.10944090123447D+04

 The electronic state is 1-A.
 Alpha  occ. eigenvalues -- -104.93484 -20.71387 -15.84485 -11.50222 -11.46743
 Alpha  occ. eigenvalues --  -11.46305 -11.42131 -11.39637 -11.38878 -11.38759
 Alpha  occ. eigenvalues --  -11.38324 -11.38037 -11.37986 -11.37898 -11.37531
 Alpha  occ. eigenvalues --  -11.37245 -10.66044  -8.12826  -8.12478  -8.12467
 Alpha  occ. eigenvalues --   -1.55237  -1.46868  -1.31041  -1.25888  -1.23738
 Alpha  occ. eigenvalues --   -1.20126  -1.16520  -1.12052  -1.10263  -1.10205
 Alpha  occ. eigenvalues --   -1.06293  -1.00136  -0.95385  -0.95172  -0.93216
 Alpha  occ. eigenvalues --   -0.89206  -0.84808  -0.82807  -0.82205  -0.78998
 Alpha  occ. eigenvalues --   -0.77743  -0.76546  -0.75551  -0.75193  -0.73491
 Alpha  occ. eigenvalues --   -0.72447  -0.72103  -0.70631  -0.69641  -0.69019
 Alpha  occ. eigenvalues --   -0.68934  -0.67892  -0.67422  -0.66187  -0.65228
 Alpha  occ. eigenvalues --   -0.64304  -0.63659  -0.63461  -0.62665  -0.57806
 Alpha  occ. eigenvalues --   -0.57405  -0.55027  -0.47256  -0.45298
 Alpha virt. eigenvalues --   -0.07637  -0.07198  -0.05968  -0.05209  -0.04721
 Alpha virt. eigenvalues --   -0.03609  -0.03438  -0.03220  -0.03023  -0.02668
 Alpha virt. eigenvalues --   -0.01954  -0.01272  -0.01179  -0.00927  -0.00722

 Mulliken charges:
               1
     1  C    1.007093
     2  H   -0.033207
     3  H   -0.084421
     4  H    0.033959
     5  C   -0.180458
     6  N   -0.352517
     7  C   -3.675403
     8  C    1.350600
     9  H    0.005090
    10  H    0.037123
    11  H   -0.067278
    12  C    1.345202
    13  H    0.000962
    14  H   -0.016649
    15  H    0.009733
    16  C    1.325210
    17  H    0.065571
    18  H   -0.026353
    19  H   -0.000418
    20  H    0.265281
    21  H   -0.482691
    22  C    0.376215
    23  O   -1.010355
    24  C    1.882131
    25  C    0.649311
    26  H   -0.565291
    27  C   -0.917631
    28  Cl  -0.324143
    29  C    0.909651
    30  H   -0.408547
    31  C    0.386932
    32  H   -0.530449
    33  C    0.732612
    34  H   -0.862183
    35  H    0.155317
 Sum of Mulliken charges =   1.00000

 Dipole moment (field-independent basis, Debye):
    X=            -10.3571    Y=              3.8751    Z=             -0.0337  Tot=             11.0584
 Quadrupole moment (field-independent basis, Debye-Ang):
   XX=            -50.5367   YY=            -92.8085   ZZ=            -95.2956
   XY=              6.6293   XZ=              5.6702   YZ=             -1.1533

 Normal termination of Gaussian 16 at Sun Jul 18 20:00:27 2021.
