 Gaussian 16, Revision A.03,

 ---------------------------------------------------------------
 #p b3lyp/6-31G(d) opt freq scrf=(iefpcm,read,solvent=n-octanol)
 ---------------------------------------------------------------

 --------------------------------------------
 SET_328_BBB20_conf1.geo_135_300_300 geometry
 --------------------------------------------
 Symbolic Z-matrix:
 Charge =  1 Multiplicity = 1

 SCF Done:  E(RB3LYP) =  -769.791011579     A.U. after   13 cycles
 SCF Done:  E(RB3LYP) =  -769.822126651     A.U. after   11 cycles
 SCF Done:  E(RB3LYP) =  -769.803631948     A.U. after   12 cycles
 SCF Done:  E(RB3LYP) =  -769.835736145     A.U. after   11 cycles
 SCF Done:  E(RB3LYP) =  -769.836823640     A.U. after   10 cycles
 SCF Done:  E(RB3LYP) =  -769.835978675     A.U. after   11 cycles
 SCF Done:  E(RB3LYP) =  -769.837390843     A.U. after   10 cycles
 SCF Done:  E(RB3LYP) =  -769.836566985     A.U. after   11 cycles
 SCF Done:  E(RB3LYP) =  -769.837489172     A.U. after   10 cycles
 SCF Done:  E(RB3LYP) =  -769.837451653     A.U. after   10 cycles
 SCF Done:  E(RB3LYP) =  -769.837542503     A.U. after   10 cycles
 SCF Done:  E(RB3LYP) =  -769.837614571     A.U. after   10 cycles
 SCF Done:  E(RB3LYP) =  -769.837564986     A.U. after    9 cycles
 SCF Done:  E(RB3LYP) =  -769.837526141     A.U. after    9 cycles
 SCF Done:  E(RB3LYP) =  -769.837564883     A.U. after    9 cycles
 SCF Done:  E(RB3LYP) =  -769.837565253     A.U. after    7 cycles
 Optimization completed.
    -- Stationary point found.
 Normal termination of Gaussian 16 at Sun Jul 18 15:20:55 2021.

 --------------------------------------------------------------------
 #P Geom=AllCheck Guess=TCheck SCRF=Check GenChk RB3LYP/6-31G(d) Freq
 --------------------------------------------------------------------

 Structure from the checkpoint file:  "SET_328_BBB20_conf1.geo_135_300_300.chk"
 --------------------------------------------
 SET_328_BBB20_conf1.geo_135_300_300 geometry
 --------------------------------------------
 Charge =  1 Multiplicity = 1

 SCF Done:  E(RB3LYP) =  -769.837565253     A.U. after    1 cycles

  Exact polarizability: 283.167   5.917 190.437  -2.400 -43.996 208.180
 Approx polarizability: 327.521   9.648 232.649  -4.991 -63.780 274.262

                      1                      2                      3
                      A                      A                      A
 Frequencies --     33.2033                54.3542                72.6146
 Red. masses --      4.2324                 3.5830                 4.0561
 Frc consts  --      0.0027                 0.0062                 0.0126
 IR Inten    --     10.2469                18.9925                13.8489

                      4                      5                      6
                      A                      A                      A
 Frequencies --     97.3425               117.9385               145.4259
 Red. masses --      3.4022                 3.5374                 3.6274
 Frc consts  --      0.0190                 0.0290                 0.0452
 IR Inten    --      0.5883                 8.4891                 0.6948

                      7                      8                      9
                      A                      A                      A
 Frequencies --    163.9258               195.4102               229.7627
 Red. masses --      3.0163                 3.2228                 2.3341
 Frc consts  --      0.0478                 0.0725                 0.0726
 IR Inten    --     13.1244                12.1804                 2.2551

                     10                     11                     12
                      A                      A                      A
 Frequencies --    269.7314               294.8613               315.0422
 Red. masses --      3.7881                 2.4819                 1.4451
 Frc consts  --      0.1624                 0.1271                 0.0845
 IR Inten    --      1.8626                 1.5170                 0.8789

                     13                     14                     15
                      A                      A                      A
 Frequencies --    322.3875               335.5444               381.3457
 Red. masses --      2.4151                 3.2539                 2.7428
 Frc consts  --      0.1479                 0.2159                 0.2350
 IR Inten    --      1.8640                 2.0116                11.8310

                     16                     17                     18
                      A                      A                      A
 Frequencies --    387.6254               421.5501               444.4247
 Red. masses --      3.0133                 2.5765                 2.6793
 Frc consts  --      0.2668                 0.2698                 0.3118
 IR Inten    --      1.1790                 2.9802                 3.5040

                     19                     20                     21
                      A                      A                      A
 Frequencies --    467.1271               481.0599               493.3172
 Red. masses --      3.8461                 2.7212                 2.8166
 Frc consts  --      0.4945                 0.3710                 0.4039
 IR Inten    --      2.5078                 2.0987                 9.6512

                     22                     23                     24
                      A                      A                      A
 Frequencies --    528.5707               553.7621               575.9901
 Red. masses --      3.4242                 3.9668                 4.6742
 Frc consts  --      0.5637                 0.7167                 0.9137
 IR Inten    --      2.5168                 1.2484                 1.4632

                     25                     26                     27
                      A                      A                      A
 Frequencies --    595.6169               601.0428               636.7195
 Red. masses --      3.4493                 3.0737                 5.6043
 Frc consts  --      0.7210                 0.6542                 1.3386
 IR Inten    --      5.2567                 8.5411                 7.8417

                     28                     29                     30
                      A                      A                      A
 Frequencies --    693.3132               730.0827               759.0543
 Red. masses --      4.8071                 3.3343                 2.4745
 Frc consts  --      1.3614                 1.0471                 0.8400
 IR Inten    --      5.9500                 1.9342                15.0106

                     31                     32                     33
                      A                      A                      A
 Frequencies --    766.1390               775.1230               783.2615
 Red. masses --      1.4181                 1.7354                 2.5228
 Frc consts  --      0.4904                 0.6143                 0.9119
 IR Inten    --     32.1209                73.0110                 4.4687

                     34                     35                     36
                      A                      A                      A
 Frequencies --    788.3507               811.6019               831.0441
 Red. masses --      1.9959                 3.0067                 1.9368
 Frc consts  --      0.7309                 1.1669                 0.7881
 IR Inten    --     15.4807                 1.9274                22.0941

                     37                     38                     39
                      A                      A                      A
 Frequencies --    871.0181               881.8743               887.0280
 Red. masses --      1.3544                 1.7998                 1.9762
 Frc consts  --      0.6054                 0.8247                 0.9161
 IR Inten    --      1.4997                 0.9250                 6.2631

                     40                     41                     42
                      A                      A                      A
 Frequencies --    925.9867               941.4145               945.9187
 Red. masses --      1.9608                 2.0833                 1.5485
 Frc consts  --      0.9906                 1.0878                 0.8163
 IR Inten    --     12.7237                12.5967                 7.9377

                     43                     44                     45
                      A                      A                      A
 Frequencies --    948.2721               964.8520               981.1366
 Red. masses --      1.3910                 1.9087                 1.3215
 Frc consts  --      0.7369                 1.0469                 0.7495
 IR Inten    --      4.7195                13.0455                 0.0343

                     46                     47                     48
                      A                      A                      A
 Frequencies --    984.8299               985.7336              1026.6060
 Red. masses --      1.2626                 1.9726                 1.9028
 Frc consts  --      0.7215                 1.1293                 1.1815
 IR Inten    --      0.2055                 0.7794                 3.7503

                     49                     50                     51
                      A                      A                      A
 Frequencies --   1053.9801              1063.9495              1072.9941
 Red. masses --      2.4290                 1.6757                 2.1867
 Frc consts  --      1.5898                 1.1176                 1.4833
 IR Inten    --      2.8995                15.0433                 4.1312

                     52                     53                     54
                      A                      A                      A
 Frequencies --   1084.8199              1101.9714              1130.4434
 Red. masses --      2.7674                 2.3190                 1.6983
 Frc consts  --      1.9188                 1.6592                 1.2787
 IR Inten    --      6.7161                14.6527                10.5655

                     55                     56                     57
                      A                      A                      A
 Frequencies --   1137.1579              1160.7308              1173.0764
 Red. masses --      1.9815                 1.8439                 1.6699
 Frc consts  --      1.5096                 1.4637                 1.3539
 IR Inten    --     44.9965                28.2140                18.4581

                     58                     59                     60
                      A                      A                      A
 Frequencies --   1189.7057              1192.6768              1199.7459
 Red. masses --      1.0921                 1.2798                 1.1899
 Frc consts  --      0.9107                 1.0726                 1.0091
 IR Inten    --      1.4690                 3.3560                 4.3105

                     61                     62                     63
                      A                      A                      A
 Frequencies --   1214.0366              1235.5397              1243.1854
 Red. masses --      1.5919                 2.3556                 2.5754
 Frc consts  --      1.3824                 2.1187                 2.3451
 IR Inten    --      4.2906                14.6425               100.8120

                     64                     65                     66
                      A                      A                      A
 Frequencies --   1258.1081              1271.1635              1298.3043
 Red. masses --      1.4557                 1.7115                 1.4604
 Frc consts  --      1.3576                 1.6294                 1.4503
 IR Inten    --     29.2877               107.0331                23.9049

                     67                     68                     69
                      A                      A                      A
 Frequencies --   1318.0066              1328.8584              1337.5073
 Red. masses --      1.3930                 1.5604                 3.3222
 Frc consts  --      1.4257                 1.6234                 3.5016
 IR Inten    --      9.6888                 3.5197               104.9919

                     70                     71                     72
                      A                      A                      A
 Frequencies --   1357.4156              1369.4147              1372.0677
 Red. masses --      2.9744                 3.6182                 1.2005
 Frc consts  --      3.2291                 3.9977                 1.3316
 IR Inten    --     53.5537                22.1486                13.7155

                     73                     74                     75
                      A                      A                      A
 Frequencies --   1379.2507              1397.3516              1406.0684
 Red. masses --      1.5324                 1.4842                 1.3082
 Frc consts  --      1.7175                 1.7075                 1.5238
 IR Inten    --      5.3825                11.2521                15.6461

                     76                     77                     78
                      A                      A                      A
 Frequencies --   1435.9354              1458.3303              1487.3498
 Red. masses --      1.4424                 1.2850                 1.3147
 Frc consts  --      1.7523                 1.6101                 1.7136
 IR Inten    --      7.8969                12.4184                 7.1497

                     79                     80                     81
                      A                      A                      A
 Frequencies --   1493.9665              1500.8169              1503.2597
 Red. masses --      1.6889                 1.1681                 1.2902
 Frc consts  --      2.2209                 1.5502                 1.7179
 IR Inten    --     44.0913                 0.9459                40.1356

                     82                     83                     84
                      A                      A                      A
 Frequencies --   1505.7683              1516.6881              1533.4709
 Red. masses --      1.7763                 1.0873                 2.0809
 Frc consts  --      2.3730                 1.4737                 2.8831
 IR Inten    --     38.2646                26.9980               172.7821

                     85                     86                     87
                      A                      A                      A
 Frequencies --   1547.1297              1555.6666              1571.9236
 Red. masses --      2.5166                 1.1926                 1.1346
 Frc consts  --      3.5491                 1.7005                 1.6519
 IR Inten    --     15.8000               167.4282                92.5984

                     88                     89                     90
                      A                      A                      A
 Frequencies --   1633.0514              1646.0738              1654.3777
 Red. masses --      5.7464                 6.5487                 1.0867
 Frc consts  --      9.0291                10.4545                 1.7525
 IR Inten    --     16.7077                16.2999                86.6459

                     91                     92                     93
                      A                      A                      A
 Frequencies --   1657.3342              1664.2069              1683.8933
 Red. masses --      4.6662                 5.7805                 1.0415
 Frc consts  --      7.5516                 9.4325                 1.7399
 IR Inten    --     27.8626                12.0399                70.8883

                     94                     95                     96
                      A                      A                      A
 Frequencies --   3034.1010              3041.3667              3059.8245
 Red. masses --      1.0747                 1.0648                 1.0638
 Frc consts  --      5.8288                 5.8028                 5.8679
 IR Inten    --     63.6944                31.9553                36.0437

                     97                     98                     99
                      A                      A                      A
 Frequencies --   3079.2247              3081.9021              3113.3525
 Red. masses --      1.0680                 1.0963                 1.1011
 Frc consts  --      5.9662                 6.1352                 6.2881
 IR Inten    --     41.9800                64.3392                45.4864

                    100                    101                    102
                      A                      A                      A
 Frequencies --   3126.1002              3135.3810              3156.7472
 Red. masses --      1.0712                 1.0835                 1.0877
 Frc consts  --      6.1676                 6.2758                 6.3863
 IR Inten    --      4.4389                11.8196                38.7720

                    103                    104                    105
                      A                      A                      A
 Frequencies --   3186.2281              3187.8328              3203.8245
 Red. masses --      1.1100                 1.0876                 1.0862
 Frc consts  --      6.6396                 6.5119                 6.5687
 IR Inten    --      6.5961                17.3874                 5.8159

                    106                    107                    108
                      A                      A                      A
 Frequencies --   3207.9225              3214.1807              3221.9817
 Red. masses --      1.0884                 1.0892                 1.0950
 Frc consts  --      6.5989                 6.6296                 6.6973
 IR Inten    --     14.2859                16.4642                46.3173

                    109                    110                    111
                      A                      A                      A
 Frequencies --   3224.8577              3235.6594              3243.3157
 Red. masses --      1.0930                 1.0961                 1.0913
 Frc consts  --      6.6972                 6.7609                 6.7636
 IR Inten    --     43.2463                22.5034                21.3791

                    112                    113                    114
                      A                      A                      A
 Frequencies --   3413.1784              3494.8210              3520.3331
 Red. masses --      1.0436                 1.0840                 1.0913
 Frc consts  --      7.1632                 7.8008                 7.9680
 IR Inten    --    109.1252               170.2847               180.6228

 - Thermochemistry -
 -------------------
 Temperature   298.150 Kelvin.  Pressure   1.00000 Atm.
 Atom     1 has atomic number  7 and mass  14.00307

 Molecular mass:   253.17047 amu.
 Principal axes and moments of inertia in atomic units:
                           1         2         3
     Eigenvalues --  3961.013135290.996806959.32785
           X            0.99999  -0.00012  -0.00345
           Y            0.00009   0.99996  -0.00855
           Z            0.00345   0.00855   0.99996
 This molecule is an asymmetric top.
 Rotational symmetry number  1.
 Warning -- assumption of classical behavior for rotation
           may cause significant error
 Rotational temperatures (Kelvin)      0.02187     0.01637     0.01245
 Rotational constants (GHZ):           0.45563     0.34110     0.25933
 Zero-point vibrational energy     933549.2 (Joules/Mol)
                                  223.12363 (Kcal/Mol)
 Warning -- explicit consideration of  26 degrees of freedom as
           vibrations may cause significant error
 Vibrational temperatures:     47.77    78.20   104.48   140.05   169.69
          (Kelvin)            209.24   235.85   281.15   330.58   388.08
                              424.24   453.28   463.84   482.77   548.67
                              557.71   606.52   639.43   672.09   692.14
                              709.77   760.50   796.74   828.72   856.96
                              864.77   916.10   997.52  1050.43  1092.11
                             1102.30  1115.23  1126.94  1134.26  1167.71
                             1195.69  1253.20  1268.82  1276.24  1332.29
                             1354.49  1360.97  1364.35  1388.21  1411.64
                             1416.95  1418.25  1477.06  1516.44  1530.79
                             1543.80  1560.81  1585.49  1626.46  1636.12
                             1670.03  1687.80  1711.72  1716.00  1726.17
                             1746.73  1777.67  1788.67  1810.14  1828.92
                             1867.97  1896.32  1911.93  1924.37  1953.02
                             1970.28  1974.10  1984.43  2010.48  2023.02
                             2065.99  2098.21  2139.96  2149.48  2159.34
                             2162.86  2166.46  2182.18  2206.32  2225.97
                             2238.26  2261.65  2349.60  2368.33  2380.28
                             2384.53  2394.42  2422.75  4365.39  4375.85
                             4402.40  4430.32  4434.17  4479.42  4497.76
                             4511.11  4541.86  4584.27  4586.58  4609.59
                             4615.48  4624.49  4635.71  4639.85  4655.39
                             4666.41  4910.80  5028.27  5064.97

 Zero-point correction=                           0.355570 (Hartree/Particle)
 Thermal correction to Energy=                    0.371541
 Thermal correction to Enthalpy=                  0.372486
 Thermal correction to Gibbs Free Energy=         0.312335
 Sum of electronic and zero-point Energies=           -769.481995
 Sum of electronic and thermal Energies=              -769.466024
 Sum of electronic and thermal Enthalpies=            -769.465080
 Sum of electronic and thermal Free Energies=         -769.525230

                     E (Thermal)             CV                S
                      KCal/Mol        Cal/Mol-Kelvin    Cal/Mol-Kelvin
 Total                  233.146             65.610            126.598
 Electronic               0.000              0.000              0.000
 Translational            0.889              2.981             42.487
 Rotational               0.889              2.981             33.344
 Vibrational            231.368             59.649             50.767
 Vibration     1          0.594              1.983              5.628
 Vibration     2          0.596              1.976              4.652
 Vibration     3          0.599              1.967              4.081
 Vibration     4          0.603              1.951              3.507
 Vibration     5          0.608              1.934              3.134
 Vibration     6          0.617              1.908              2.731
 Vibration     7          0.623              1.887              2.504
 Vibration     8          0.636              1.846              2.176
 Vibration     9          0.652              1.796              1.881
 Vibration    10          0.674              1.729              1.598
 Vibration    11          0.689              1.683              1.446
 Vibration    12          0.702              1.645              1.336
 Vibration    13          0.707              1.631              1.298
 Vibration    14          0.717              1.605              1.233
 Vibration    15          0.751              1.510              1.034
 Vibration    16          0.756              1.497              1.009
 Vibration    17          0.784              1.423              0.887
 Vibration    18          0.804              1.373              0.813
 Vibration    19          0.824              1.323              0.746
 Vibration    20          0.837              1.292              0.707
 Vibration    21          0.849              1.265              0.675
 Vibration    22          0.884              1.187              0.590
 Vibration    23          0.909              1.131              0.536
 Vibration    24          0.932              1.083              0.493
 Vibration    25          0.953              1.041              0.457
 Vibration    26          0.959              1.030              0.448

                           ! Non-Optimized Parameters !
 Normal termination of Gaussian 16 at Sun Jul 18 16:16:39 2021.

 ----------------------------------------------------------------------
 #p b3lyp/6-31G(d) scrf=(iefpcm,read,solvent=n-octanol) geom=allcheck g
 uess=read
 ----------------------------------------------------------------------

 Structure from the checkpoint file:  "SET_328_BBB20_conf1.geo_135_300_300.chk"
 --------------------------------------------
 SET_328_BBB20_conf1.geo_135_300_300 geometry
 --------------------------------------------
 Charge =  1 Multiplicity = 1

 SCF Done:  E(RB3LYP) =  -769.840337844     A.U. after    1 cycles
 Normal termination of Gaussian 16 at Sun Jul 18 16:17:42 2021.

 -----------------------------
 #p B3LYP/6-31G* geom=allcheck
 -----------------------------

 Structure from the checkpoint file:  "SET_328_BBB20_conf1.geo_135_300_300.chk"
 --------------------------------------------
 SET_328_BBB20_conf1.geo_135_300_300 geometry
 --------------------------------------------
 Charge =  1 Multiplicity = 1

 SCF Done:  E(RB3LYP) =  -769.719163542     A.U. after   14 cycles
 Normal termination of Gaussian 16 at Sun Jul 18 16:21:03 2021.
 Gaussian 16:  ES64L-G16RevA.03 25-Dec-2016

 --------------------------------------------------------
 #p mp2/aug-cc-pVDZ scf=tight maxdisk=180GB geom=allcheck
 --------------------------------------------------------

 Structure from the checkpoint file:  "SET_328_BBB20_conf1.geo_135_300_300.chk"
 --------------------------------------------
 SET_328_BBB20_conf1.geo_135_300_300 geometry
 --------------------------------------------
 Charge =  1 Multiplicity = 1

                         Standard orientation:
 ---------------------------------------------------------------------
 Center     Atomic      Atomic             Coordinates (Angstroms)
 Number     Number       Type             X           Y           Z
 ---------------------------------------------------------------------
      1          7           0       -0.786630    3.698008    1.243515
      2          1           0       -1.601779    3.167698    0.910823
      3          1           0       -0.793858    4.603479    0.755893
      4          6           0        0.514968    2.955829    1.053455
      5          1           0        0.398943    1.996278    1.559702
      6          1           0        1.273111    3.546023    1.568050
      7          6           0        0.884061    2.746422   -0.410703
      8          1           0        1.924308    2.413557   -0.420511
      9          1           0        0.858358    3.693531   -0.961146
     10          6           0        0.028993    1.707253   -1.151038
     11          1           0        0.387340    1.631911   -2.186324
     12          1           0       -1.006567    2.040697   -1.229283
     13          7           0        0.003310    0.418739   -0.455528
     14          6           0       -1.248309   -0.270612   -0.486812
     15          6           0       -2.060272   -0.242016   -1.626008
     16          1           0       -1.712560    0.267799   -2.516290
     17          6           0       -3.304242   -0.870717   -1.621554
     18          1           0       -3.921519   -0.843944   -2.512562
     19          6           0       -3.743453   -1.540096   -0.479886
     20          1           0       -4.709078   -2.033915   -0.471136
     21          6           0       -2.933170   -1.565283    0.655483
     22          1           0       -3.268756   -2.071182    1.554962
     23          6           0       -1.691856   -0.926339    0.671000
     24          6           0       -0.801433   -0.938839    1.876140
     25          1           0       -1.354639   -1.316900    2.740363
     26          1           0       -0.482678    0.083054    2.109829
     27          6           0        0.436129   -1.813430    1.653363
     28          1           0        0.094764   -2.824148    1.395474
     29          1           0        0.978332   -1.915443    2.599933
     30          6           0        1.432162   -1.342921    0.604223
     31          6           0        2.674319   -1.992719    0.622470
     32          1           0        2.822766   -2.768434    1.368514
     33          6           0        3.711523   -1.674491   -0.248263
     34          1           0        4.660097   -2.198155   -0.190569
     35          6           0        3.505735   -0.663156   -1.182271
     36          1           0        4.288854   -0.383779   -1.878630
     37          6           0        2.281940   -0.005833   -1.233240
     38          1           0        2.144062    0.763758   -1.981329
     39          6           0        1.223497   -0.323671   -0.357971
     40          1           0       -0.959811    3.894604    2.237984
 ---------------------------------------------------------------------

 SCF Done:  E(RHF) =  -764.749426125     A.U. after   16 cycles
 E2 =    -0.2716936457D+01 EUMP2 =    -0.76746636258198D+03

 The electronic state is 1-A.
 Alpha  occ. eigenvalues --  -15.88815 -15.69065 -11.46486 -11.40133 -11.39097
 Alpha  occ. eigenvalues --  -11.38279 -11.37593 -11.33893 -11.33873 -11.33632
 Alpha  occ. eigenvalues --  -11.33587 -11.33310 -11.33280 -11.33039 -11.33011
 Alpha  occ. eigenvalues --  -11.32930 -11.32822 -11.32605 -11.32088  -1.49653
 Alpha  occ. eigenvalues --   -1.37815  -1.25230  -1.24235  -1.21037  -1.17770
 Alpha  occ. eigenvalues --   -1.12379  -1.11866  -1.10787  -1.08222  -1.04530
 Alpha  occ. eigenvalues --   -0.98912  -0.97646  -0.95347  -0.94075  -0.92441
 Alpha  occ. eigenvalues --   -0.91138  -0.88992  -0.87433  -0.83514  -0.80501
 Alpha  occ. eigenvalues --   -0.79640  -0.77890  -0.75841  -0.74409  -0.74172
 Alpha  occ. eigenvalues --   -0.73915  -0.72395  -0.70284  -0.69716  -0.68760
 Alpha  occ. eigenvalues --   -0.68095  -0.67229  -0.65828  -0.64480  -0.64326
 Alpha  occ. eigenvalues --   -0.63212  -0.62352  -0.60548  -0.59746  -0.58458
 Alpha  occ. eigenvalues --   -0.57739  -0.57274  -0.56588  -0.52086  -0.42883
 Alpha  occ. eigenvalues --   -0.42262  -0.41539  -0.39130
 Alpha virt. eigenvalues --   -0.10547  -0.07113  -0.06783  -0.05037  -0.03681
 Alpha virt. eigenvalues --   -0.03435  -0.03352  -0.02882  -0.02737  -0.01610
 Alpha virt. eigenvalues --   -0.01303  -0.01236  -0.00992  -0.00743  -0.00193

 Mulliken charges:
               1
     1  N   -0.589867
     2  H    0.247650
     3  H    0.247516
     4  C    1.155570
     5  H   -0.295903
     6  H   -0.092402
     7  C    0.503485
     8  H   -0.062954
     9  H   -0.151465
    10  C    0.639030
    11  H   -0.182928
    12  H   -0.574402
    13  N    0.025948
    14  C   -0.837196
    15  C    1.017012
    16  H   -0.676559
    17  C    0.296578
    18  H   -0.483067
    19  C    0.741486
    20  H   -0.453928
    21  C    0.590761
    22  H   -0.625011
    23  C    0.408688
    24  C    0.860597
    25  H   -0.138041
    26  H   -0.302458
    27  C    0.110133
    28  H    0.052788
    29  H   -0.039708
    30  C   -0.687792
    31  C    0.765080
    32  H   -0.732343
    33  C    0.255919
    34  H   -0.468389
    35  C    0.447450
    36  H   -0.557351
    37  C    1.061189
    38  H   -0.940447
    39  C    0.277164
    40  H    0.188168
 Sum of Mulliken charges =   1.00000

 Dipole moment (field-independent basis, Debye):
    X=             -2.4145    Y=             14.0484    Z=              4.4739  Tot=             14.9400
 Quadrupole moment (field-independent basis, Debye-Ang):
   XX=            -94.8289   YY=            -48.8598   ZZ=            -96.4090
   XY=             -8.5922   XZ=             -4.1571   YZ=             11.0381

 Normal termination of Gaussian 16 at Sun Jul 18 18:02:58 2021.
