 Gaussian 16, Revision A.03,

 ---------------------------------------------------------------
 #p b3lyp/6-31G(d) opt freq scrf=(iefpcm,read,solvent=n-octanol)
 ---------------------------------------------------------------

 ---------------------------------------------
 SET_328_BBB256_conf1.geo_285_180_255 geometry
 ---------------------------------------------
 Symbolic Z-matrix:
 Charge =  1 Multiplicity = 1

 SCF Done:  E(RB3LYP) =  -422.013961638     A.U. after   13 cycles
 SCF Done:  E(RB3LYP) =  -422.035898831     A.U. after   12 cycles
 SCF Done:  E(RB3LYP) =  -422.022307786     A.U. after   12 cycles
 SCF Done:  E(RB3LYP) =  -422.042627942     A.U. after   11 cycles
 SCF Done:  E(RB3LYP) =  -422.043254125     A.U. after   10 cycles
 SCF Done:  E(RB3LYP) =  -422.042522499     A.U. after   11 cycles
 SCF Done:  E(RB3LYP) =  -422.043653741     A.U. after   10 cycles
 SCF Done:  E(RB3LYP) =  -422.043832606     A.U. after   11 cycles
 SCF Done:  E(RB3LYP) =  -422.044063762     A.U. after   11 cycles
 SCF Done:  E(RB3LYP) =  -422.044389629     A.U. after   11 cycles
 SCF Done:  E(RB3LYP) =  -422.045314463     A.U. after   10 cycles
 SCF Done:  E(RB3LYP) =  -422.045177976     A.U. after   10 cycles
 SCF Done:  E(RB3LYP) =  -422.045177654     A.U. after    8 cycles
 SCF Done:  E(RB3LYP) =  -422.045178941     A.U. after    7 cycles
 SCF Done:  E(RB3LYP) =  -422.045178889     A.U. after    7 cycles
 SCF Done:  E(RB3LYP) =  -422.045178941     A.U. after    6 cycles
 Optimization completed.
    -- Stationary point found.
 Normal termination of Gaussian 16 at Sun Jul 18 15:47:20 2021.

 --------------------------------------------------------------------
 #P Geom=AllCheck Guess=TCheck SCRF=Check GenChk RB3LYP/6-31G(d) Freq
 --------------------------------------------------------------------

 Structure from the checkpoint file:  "SET_328_BBB256_conf1.geo_285_180_255.chk"
 ---------------------------------------------
 SET_328_BBB256_conf1.geo_285_180_255 geometry
 ---------------------------------------------
 Charge =  1 Multiplicity = 1

 SCF Done:  E(RB3LYP) =  -422.045178941     A.U. after    1 cycles

  Exact polarizability: 144.213  -3.461 115.638   6.118  -3.023  63.551
 Approx polarizability: 166.110  -1.771 155.679   9.229  -4.258  79.103

                      1                      2                      3
                      A                      A                      A
 Frequencies --     20.4061                64.6062               115.0709
 Red. masses --      3.5954                 2.8245                 3.0418
 Frc consts  --      0.0009                 0.0069                 0.0237
 IR Inten    --      6.1124                 0.8329                15.5822

                      4                      5                      6
                      A                      A                      A
 Frequencies --    138.9510               223.8077               262.5349
 Red. masses --      2.0394                 1.5622                 1.7981
 Frc consts  --      0.0232                 0.0461                 0.0730
 IR Inten    --      0.4470                 2.2163                 5.6212

                      7                      8                      9
                      A                      A                      A
 Frequencies --    286.9053               364.0116               419.7535
 Red. masses --      2.9403                 2.6398                 3.5531
 Frc consts  --      0.1426                 0.2061                 0.3688
 IR Inten    --     12.3191                 1.0936                 5.3101

                     10                     11                     12
                      A                      A                      A
 Frequencies --    425.8152               506.7103               619.6012
 Red. masses --      2.7086                 2.9677                 5.5184
 Frc consts  --      0.2894                 0.4489                 1.2482
 IR Inten    --      2.7189                 5.3110                 4.8001

                     13                     14                     15
                      A                      A                      A
 Frequencies --    649.2072               760.0475               778.1018
 Red. masses --      5.6183                 2.8296                 1.2023
 Frc consts  --      1.3952                 0.9631                 0.4289
 IR Inten    --      3.6530                 1.6054                36.1346

                     16                     17                     18
                      A                      A                      A
 Frequencies --    795.2307               844.2130               851.5389
 Red. masses --      1.5055                 1.4295                 4.1858
 Frc consts  --      0.5609                 0.6003                 1.7883
 IR Inten    --     19.0959                22.9210                 0.8103

                     19                     20                     21
                      A                      A                      A
 Frequencies --    913.7435               927.0828               987.3714
 Red. masses --      1.6563                 1.6639                 1.4052
 Frc consts  --      0.8148                 0.8426                 0.8071
 IR Inten    --      4.2030                 3.3887                 0.1689

                     22                     23                     24
                      A                      A                      A
 Frequencies --   1008.5142              1017.5098              1020.8622
 Red. masses --      3.2317                 3.8479                 1.3021
 Frc consts  --      1.9366                 2.3472                 0.7995
 IR Inten    --     33.0900                 3.8837                 0.0799

                     25                     26                     27
                      A                      A                      A
 Frequencies --   1049.2127              1070.1289              1077.6604
 Red. masses --      1.9715                 2.4953                 2.2633
 Frc consts  --      1.2787                 1.6836                 1.5487
 IR Inten    --     14.8394                11.6283                12.4116

                     28                     29                     30
                      A                      A                      A
 Frequencies --   1123.1146              1162.2932              1185.1722
 Red. masses --      1.4750                 1.2871                 1.1301
 Frc consts  --      1.0962                 1.0244                 0.9352
 IR Inten    --      0.2587                10.6543                 4.7771

                     31                     32                     33
                      A                      A                      A
 Frequencies --   1192.3231              1247.9206              1276.0714
 Red. masses --      1.4660                 2.1700                 1.6079
 Frc consts  --      1.2280                 1.9911                 1.5426
 IR Inten    --      6.4755                11.4063                 1.8328

                     34                     35                     36
                      A                      A                      A
 Frequencies --   1312.1599              1334.7608              1338.0470
 Red. masses --      3.2744                 1.4919                 1.3342
 Frc consts  --      3.3217                 1.5660                 1.4074
 IR Inten    --      0.3910                 7.1984                 1.5712

                     37                     38                     39
                      A                      A                      A
 Frequencies --   1368.8053              1409.9814              1455.9002
 Red. masses --      1.3011                 1.3013                 1.2074
 Frc consts  --      1.4363                 1.5243                 1.5078
 IR Inten    --      0.9310                 4.3975                 5.6862

                     40                     41                     42
                      A                      A                      A
 Frequencies --   1467.8237              1485.2553              1488.7566
 Red. masses --      1.1881                 1.9924                 1.3541
 Frc consts  --      1.5081                 2.5895                 1.7683
 IR Inten    --      5.5513                44.9655                32.3895

                     43                     44                     45
                      A                      A                      A
 Frequencies --   1509.8469              1514.9111              1521.6511
 Red. masses --      1.0956                 1.0467                 1.9005
 Frc consts  --      1.4715                 1.4153                 2.5926
 IR Inten    --      1.0981                13.5497                29.8404

                     46                     47                     48
                      A                      A                      A
 Frequencies --   1524.1921              1531.3217              1634.4569
 Red. masses --      1.1540                 1.0752                 5.7928
 Frc consts  --      1.5796                 1.4855                 9.1177
 IR Inten    --     31.4598                36.4563                21.8167

                     49                     50                     51
                      A                      A                      A
 Frequencies --   1652.1269              1662.7105              3080.5270
 Red. masses --      5.3937                 1.0687                 1.0618
 Frc consts  --      8.6741                 1.7407                 5.9365
 IR Inten    --     69.7067               128.7253                18.9276

                     52                     53                     54
                      A                      A                      A
 Frequencies --   3129.2853              3132.3558              3136.1396
 Red. masses --      1.0793                 1.0519                 1.0590
 Frc consts  --      6.2273                 6.0811                 6.1365
 IR Inten    --      7.3261                15.7783                 8.3868

                     55                     56                     57
                      A                      A                      A
 Frequencies --   3196.4356              3197.2149              3215.9758
 Red. masses --      1.1088                 1.0910                 1.0880
 Frc consts  --      6.6749                 6.5708                 6.6302
 IR Inten    --     12.0525                26.5161                 4.6265

                     58                     59                     60
                      A                      A                      A
 Frequencies --   3227.9423              3228.6013              3233.7672
 Red. masses --      1.1096                 1.0932                 1.1087
 Frc consts  --      6.8117                 6.7138                 6.8308
 IR Inten    --      3.3774                22.5829                 4.9667

                     61                     62                     63
                      A                      A                      A
 Frequencies --   3240.3238              3394.6926              3456.2199
 Red. masses --      1.0976                 1.0645                 1.0884
 Frc consts  --      6.7903                 7.2273                 7.6603
 IR Inten    --     15.9402               163.5545               155.7471

 - Thermochemistry -
 -------------------
 Temperature   298.150 Kelvin.  Pressure   1.00000 Atm.
 Atom     1 has atomic number  6 and mass  12.00000

 Molecular mass:   137.10787 amu.
 Principal axes and moments of inertia in atomic units:
                           1         2         3
     Eigenvalues --   473.366872934.294803207.74483
           X            0.99999   0.00370   0.00374
           Y           -0.00369   0.99999  -0.00279
           Z           -0.00375   0.00277   0.99999
 This molecule is an asymmetric top.
 Rotational symmetry number  1.
 Warning -- assumption of classical behavior for rotation
           may cause significant error
 Rotational temperatures (Kelvin)      0.18297     0.02952     0.02700
 Rotational constants (GHZ):           3.81256     0.61505     0.56262
 Zero-point vibrational energy     547098.2 (Joules/Mol)
                                  130.75962 (Kcal/Mol)
 Warning -- explicit consideration of  12 degrees of freedom as
           vibrations may cause significant error
 Vibrational temperatures:     29.36    92.95   165.56   199.92   322.01
          (Kelvin)            377.73   412.79   523.73   603.93   612.65
                              729.04   891.47   934.06  1093.54  1119.51
                             1144.16  1214.63  1225.17  1314.67  1333.87
                             1420.61  1451.03  1463.97  1468.79  1509.58
                             1539.68  1550.51  1615.91  1672.28  1705.20
                             1715.49  1795.48  1835.98  1887.91  1920.42
                             1925.15  1969.41  2028.65  2094.72  2111.87
                             2136.95  2141.99  2172.33  2179.62  2189.32
                             2192.97  2203.23  2351.62  2377.04  2392.27
                             4432.19  4502.34  4506.76  4512.21  4598.96
                             4600.08  4627.07  4644.29  4645.24  4652.67
                             4662.10  4884.21  4972.73

 Zero-point correction=                           0.208379 (Hartree/Particle)
 Thermal correction to Energy=                    0.218055
 Thermal correction to Enthalpy=                  0.219000
 Thermal correction to Gibbs Free Energy=         0.171886
 Sum of electronic and zero-point Energies=           -421.836800
 Sum of electronic and thermal Energies=              -421.827124
 Sum of electronic and thermal Enthalpies=            -421.826179
 Sum of electronic and thermal Free Energies=         -421.873292

                     E (Thermal)             CV                S
                      KCal/Mol        Cal/Mol-Kelvin    Cal/Mol-Kelvin
 Total                  136.832             35.809             99.158
 Electronic               0.000              0.000              0.000
 Translational            0.889              2.981             40.659
 Rotational               0.889              2.981             29.878
 Vibrational            135.054             29.848             28.621
 Vibration     1          0.593              1.986              6.594
 Vibration     2          0.597              1.971              4.311
 Vibration     3          0.608              1.937              3.182
 Vibration     4          0.615              1.914              2.818
 Vibration     5          0.649              1.805              1.928
 Vibration     6          0.670              1.741              1.645
 Vibration     7          0.684              1.698              1.492
 Vibration     8          0.738              1.546              1.105
 Vibration     9          0.782              1.427              0.893
 Vibration    10          0.788              1.414              0.872
 Vibration    11          0.862              1.235              0.642
 Vibration    12          0.980              0.991              0.417

                           ! Non-Optimized Parameters !
 Normal termination of Gaussian 16 at Sun Jul 18 15:57:14 2021.

 ----------------------------------------------------------------------
 #p b3lyp/6-31G(d) scrf=(iefpcm,read,solvent=n-octanol) geom=allcheck g
 uess=read
 ----------------------------------------------------------------------

 Structure from the checkpoint file:  "SET_328_BBB256_conf1.geo_285_180_255.chk"
 ---------------------------------------------
 SET_328_BBB256_conf1.geo_285_180_255 geometry
 ---------------------------------------------
 Charge =  1 Multiplicity = 1

 SCF Done:  E(RB3LYP) =  -422.049852459     A.U. after    1 cycles
 Normal termination of Gaussian 16 at Sun Jul 18 15:57:40 2021.

 -----------------------------
 #p B3LYP/6-31G* geom=allcheck
 -----------------------------

 Structure from the checkpoint file:  "SET_328_BBB256_conf1.geo_285_180_255.chk"
 ---------------------------------------------
 SET_328_BBB256_conf1.geo_285_180_255 geometry
 ---------------------------------------------
 Charge =  1 Multiplicity = 1

 SCF Done:  E(RB3LYP) =  -421.948774011     A.U. after   14 cycles
 Normal termination of Gaussian 16 at Sun Jul 18 15:58:37 2021.
 Gaussian 16:  ES64L-G16RevA.03 25-Dec-2016

 --------------------------------------------------------
 #p mp2/aug-cc-pVDZ scf=tight maxdisk=180GB geom=allcheck
 --------------------------------------------------------

 Structure from the checkpoint file:  "SET_328_BBB256_conf1.geo_285_180_255.chk"
 ---------------------------------------------
 SET_328_BBB256_conf1.geo_285_180_255 geometry
 ---------------------------------------------
 Charge =  1 Multiplicity = 1

                         Standard orientation:
 ---------------------------------------------------------------------
 Center     Atomic      Atomic             Coordinates (Angstroms)
 Number     Number       Type             X           Y           Z
 ---------------------------------------------------------------------
      1          6           0        3.694100    0.582282    0.590436
      2          1           0        3.236039    0.293368    1.532986
      3          1           0        3.473407    1.623831    0.366195
      4          1           0        4.768696    0.421937    0.631804
      5          7           0        3.126960   -0.265174   -0.507195
      6          1           0        3.341080   -1.254919   -0.329623
      7          6           0        1.643156   -0.090718   -0.720021
      8          1           0        1.409360   -0.576486   -1.666453
      9          1           0        1.455161    0.978528   -0.815260
     10          6           0        0.806928   -0.671320    0.413481
     11          1           0        1.146387   -0.270677    1.374217
     12          1           0        0.911772   -1.758314    0.453119
     13          6           0       -0.646383   -0.296067    0.219200
     14          7           0       -0.898535    1.018481    0.112906
     15          6           0       -2.169932    1.399690   -0.053125
     16          1           0       -2.339631    2.469993   -0.134053
     17          6           0       -3.241150    0.507987   -0.121221
     18          1           0       -4.252019    0.874760   -0.255283
     19          6           0       -2.970146   -0.854389   -0.015306
     20          1           0       -3.770121   -1.584954   -0.066428
     21          6           0       -1.649216   -1.265462    0.156016
     22          1           0       -1.396525   -2.316706    0.240620
     23          1           0        3.613275   -0.045532   -1.388576
 ---------------------------------------------------------------------

 SCF Done:  E(RHF) =  -419.251884310     A.U. after   15 cycles
 E2 =    -0.1457808836D+01 EUMP2 =    -0.42070969314613D+03

 The electronic state is 1-A.
 Alpha  occ. eigenvalues --  -15.87809 -15.68711 -11.46421 -11.45792 -11.40844
 Alpha  occ. eigenvalues --  -11.39708 -11.38976 -11.37101 -11.35831 -11.35092
 Alpha  occ. eigenvalues --   -1.49687  -1.37871  -1.22743  -1.19749  -1.15683
 Alpha  occ. eigenvalues --   -1.12334  -1.04044  -0.97204  -0.96126  -0.92697
 Alpha  occ. eigenvalues --   -0.88804  -0.83257  -0.80935  -0.79263  -0.76137
 Alpha  occ. eigenvalues --   -0.75501  -0.74790  -0.73784  -0.70347  -0.69515
 Alpha  occ. eigenvalues --   -0.67912  -0.66994  -0.63836  -0.62669  -0.53334
 Alpha  occ. eigenvalues --   -0.49015  -0.45265
 Alpha virt. eigenvalues --   -0.09815  -0.07129  -0.06616  -0.05557  -0.03858
 Alpha virt. eigenvalues --   -0.03528  -0.03377  -0.03132  -0.02235  -0.01773
 Alpha virt. eigenvalues --   -0.01495  -0.01234  -0.00372   0.00084   0.00276

 Mulliken charges:
               1
     1  C    0.824336
     2  H   -0.070473
     3  H   -0.059838
     4  H   -0.123275
     5  N   -0.584482
     6  H    0.167537
     7  C    0.942732
     8  H   -0.181873
     9  H   -0.160839
    10  C    0.417366
    11  H   -0.050232
    12  H   -0.157042
    13  C    0.098660
    14  N   -0.709194
    15  C    0.462783
    16  H   -0.353859
    17  C    0.927377
    18  H   -0.397864
    19  C   -0.214286
    20  H   -0.391644
    21  C    1.003249
    22  H   -0.549233
    23  H    0.160092
 Sum of Mulliken charges =   1.00000

 Dipole moment (field-independent basis, Debye):
    X=             10.2308    Y=             -1.9487    Z=             -1.6001  Tot=             10.5370
 Quadrupole moment (field-independent basis, Debye-Ang):
   XX=              1.4964   YY=            -51.7224   ZZ=            -57.5620
   XY=             -1.8207   XZ=             -3.3695   YZ=              0.0903

 Normal termination of Gaussian 16 at Sun Jul 18 16:06:04 2021.
