 Gaussian 16, Revision A.03,

 ---------------------------------------------------------------
 #p b3lyp/6-31G(d) opt freq scrf=(iefpcm,read,solvent=n-octanol)
 ---------------------------------------------------------------

 ---------------------------------------------
 SET_328_BBB292_conf1.geo_075_060_105 geometry
 ---------------------------------------------
 Symbolic Z-matrix:
 Charge =  1 Multiplicity = 1

 SCF Done:  E(RB3LYP) =  -705.567434357     A.U. after   13 cycles
 SCF Done:  E(RB3LYP) =  -705.636950190     A.U. after   12 cycles
 SCF Done:  E(RB3LYP) =  -705.636440769     A.U. after   14 cycles
 SCF Done:  E(RB3LYP) =  -705.682849188     A.U. after   12 cycles
 SCF Done:  E(RB3LYP) =  -705.688946994     A.U. after   12 cycles
 SCF Done:  E(RB3LYP) =  -705.689868322     A.U. after   12 cycles
 SCF Done:  E(RB3LYP) =  -705.692946897     A.U. after   11 cycles
 SCF Done:  E(RB3LYP) =  -705.692929059     A.U. after   11 cycles
 SCF Done:  E(RB3LYP) =  -705.695042501     A.U. after   11 cycles
 SCF Done:  E(RB3LYP) =  -705.694449701     A.U. after   14 cycles
 SCF Done:  E(RB3LYP) =  -705.697767199     A.U. after   11 cycles
 SCF Done:  E(RB3LYP) =  -705.697982711     A.U. after   11 cycles
 SCF Done:  E(RB3LYP) =  -705.698428714     A.U. after    6 cycles
 SCF Done:  E(RB3LYP) =  -705.698227083     A.U. after   11 cycles
 SCF Done:  E(RB3LYP) =  -705.698352336     A.U. after   11 cycles
 SCF Done:  E(RB3LYP) =  -705.698425742     A.U. after   10 cycles
 Optimization completed.
    -- Stationary point found.
 Normal termination of Gaussian 16 at Sun Jul 18 16:08:49 2021.

 --------------------------------------------------------------------
 #P Geom=AllCheck Guess=TCheck SCRF=Check GenChk RB3LYP/6-31G(d) Freq
 --------------------------------------------------------------------

 Structure from the checkpoint file:  "SET_328_BBB292_conf1.geo_075_060_105.chk"
 ---------------------------------------------
 SET_328_BBB292_conf1.geo_075_060_105 geometry
 ---------------------------------------------
 Charge =  1 Multiplicity = 1

 SCF Done:  E(RB3LYP) =  -705.698425742     A.U. after    1 cycles

  Exact polarizability: 164.348  -7.652 135.673 -27.271 -16.397  94.875
 Approx polarizability: 197.175  -7.481 179.239 -41.962 -25.535 129.002

 ******    1 imaginary frequencies (negative Signs) ******

                      1                      2                      3
                      A                      A                      A
 Frequencies --    -43.3317                18.3209                51.0988
 Red. masses --      5.1267                 6.5862                 8.2329
 Frc consts  --      0.0057                 0.0013                 0.0127
 IR Inten    --      7.8357                12.2197                 6.4192

                      4                      5                      6
                      A                      A                      A
 Frequencies --    112.3343               139.3149               205.6512
 Red. masses --      4.8469                 5.9466                 5.0927
 Frc consts  --      0.0360                 0.0680                 0.1269
 IR Inten    --     21.8602                 8.7383                35.4176

                      7                      8                      9
                      A                      A                      A
 Frequencies --    243.4209               259.4879               272.9868
 Red. masses --      1.1104                 2.8966                 4.4905
 Frc consts  --      0.0388                 0.1149                 0.1972
 IR Inten    --    225.1994                 2.9321                26.4909

                     10                     11                     12
                      A                      A                      A
 Frequencies --    294.0590               313.5719               325.2673
 Red. masses --      4.0194                 2.7036                 4.1821
 Frc consts  --      0.2048                 0.1566                 0.2607
 IR Inten    --     45.2740                 9.9008                 4.6068

                     13                     14                     15
                      A                      A                      A
 Frequencies --    369.6458               383.7971               431.4010
 Red. masses --      1.2790                 3.8263                 1.1324
 Frc consts  --      0.1030                 0.3321                 0.1242
 IR Inten    --      1.1407                32.0583                66.0768

                     16                     17                     18
                      A                      A                      A
 Frequencies --    455.1976               457.8644               472.3775
 Red. masses --      2.7978                 1.3175                 3.8281
 Frc consts  --      0.3416                 0.1627                 0.5033
 IR Inten    --     16.4155               144.0894                16.0750

                     19                     20                     21
                      A                      A                      A
 Frequencies --    509.3680               560.9496               596.6466
 Red. masses --      5.1594                 4.1494                 6.0042
 Frc consts  --      0.7887                 0.7693                 1.2593
 IR Inten    --     10.9883                 5.4158                17.8066

                     22                     23                     24
                      A                      A                      A
 Frequencies --    626.4558               632.2059               705.2700
 Red. masses --      4.2091                 3.1820                 5.2874
 Frc consts  --      0.9732                 0.7493                 1.5496
 IR Inten    --     10.2589                 4.2541                 1.2032

                     25                     26                     27
                      A                      A                      A
 Frequencies --    745.4868               765.1387               808.0571
 Red. masses --      5.5148                 4.9819                 2.2429
 Frc consts  --      1.8057                 1.7184                 0.8629
 IR Inten    --      2.3784                21.7772                13.2436

                     28                     29                     30
                      A                      A                      A
 Frequencies --    811.8118               824.7495               857.5367
 Red. masses --      4.1530                 2.1998                 1.4714
 Frc consts  --      1.6126                 0.8816                 0.6375
 IR Inten    --      8.5712                19.4247                35.0779

                     31                     32                     33
                      A                      A                      A
 Frequencies --    923.8831               947.0983               954.9559
 Red. masses --      1.3203                 2.0353                 2.4335
 Frc consts  --      0.6640                 1.0757                 1.3075
 IR Inten    --      0.4519                17.5920                25.3870

                     34                     35                     36
                      A                      A                      A
 Frequencies --    987.7505              1023.9758              1117.4362
 Red. masses --      2.2123                 3.3517                 1.5347
 Frc consts  --      1.2717                 2.0706                 1.1291
 IR Inten    --     14.5076                27.2498                99.9050

                     37                     38                     39
                      A                      A                      A
 Frequencies --   1126.9703              1150.5676              1171.0406
 Red. masses --      1.5802                 1.4705                 1.6193
 Frc consts  --      1.1825                 1.1469                 1.3084
 IR Inten    --     17.4468               107.5928               113.4888

                     40                     41                     42
                      A                      A                      A
 Frequencies --   1193.3242              1201.3983              1231.4063
 Red. masses --      1.4066                 1.3904                 1.4833
 Frc consts  --      1.1801                 1.1824                 1.3252
 IR Inten    --     16.9723               100.1519               115.1978

                     43                     44                     45
                      A                      A                      A
 Frequencies --   1242.1603              1298.8367              1323.8425
 Red. masses --      1.4016                 2.7117                 2.8446
 Frc consts  --      1.2741                 2.6952                 2.9372
 IR Inten    --     92.7102               228.3434               187.2745

                     46                     47                     48
                      A                      A                      A
 Frequencies --   1328.8911              1361.7024              1384.8677
 Red. masses --      2.8138                 1.8626                 1.3082
 Frc consts  --      2.9277                 2.0349                 1.4783
 IR Inten    --    334.7698                19.3645                35.5799

                     49                     50                     51
                      A                      A                      A
 Frequencies --   1390.3969              1418.0926              1436.0232
 Red. masses --      1.5179                 1.3559                 2.6212
 Frc consts  --      1.7289                 1.6065                 3.1848
 IR Inten    --     54.3436                 5.7443                42.5475

                     52                     53                     54
                      A                      A                      A
 Frequencies --   1494.4072              1530.8842              1572.0783
 Red. masses --      3.4064                 1.0872                 1.1493
 Frc consts  --      4.4821                 1.5013                 1.6736
 IR Inten    --    131.4414                 6.9492               261.0404

                     55                     56                     57
                      A                      A                      A
 Frequencies --   1579.3008              1655.5181              1665.8802
 Red. masses --      3.1238                 1.0626                 5.5436
 Frc consts  --      4.5905                 1.7159                 9.0642
 IR Inten    --    126.7786                90.9214                39.4658

                     58                     59                     60
                      A                      A                      A
 Frequencies --   1673.2116              1685.6593              1870.3405
 Red. masses --      6.2848                 1.0450                10.0638
 Frc consts  --     10.3667                 1.7495                20.7421
 IR Inten    --     29.2494               113.7982               293.6399

                     61                     62                     63
                      A                      A                      A
 Frequencies --   3087.1396              3129.1188              3176.5014
 Red. masses --      1.0604                 1.1012                 1.0888
 Frc consts  --      5.9542                 6.3529                 6.4728
 IR Inten    --     35.1990                13.0102                 2.5481

                     64                     65                     66
                      A                      A                      A
 Frequencies --   3191.3842              3213.5016              3231.3330
 Red. masses --      1.0907                 1.0882                 1.0941
 Frc consts  --      6.5453                 6.6209                 6.7310
 IR Inten    --     17.0718                14.8653                10.4988

                     67                     68                     69
                      A                      A                      A
 Frequencies --   3388.4468              3450.5553              3476.7524
 Red. masses --      1.0352                 1.0922                 1.0922
 Frc consts  --      7.0031                 7.6616                 7.7784
 IR Inten    --    164.7464               215.7272               194.5752

                     70                     71                     72
                      A                      A                      A
 Frequencies --   3710.4358              3739.8772              3751.6137
 Red. masses --      1.0651                 1.0662                 1.0665
 Frc consts  --      8.6396                 8.7860                 8.8438
 IR Inten    --    174.8019                89.4532               156.5097

 - Thermochemistry -
 -------------------
 Temperature   298.150 Kelvin.  Pressure   1.00000 Atm.
 Atom     1 has atomic number  7 and mass  14.00307

 Molecular mass:   198.07663 amu.
 Principal axes and moments of inertia in atomic units:
                           1         2         3
     Eigenvalues --  1369.257054851.349685226.97249
           X            0.99982  -0.01403  -0.01266
           Y            0.01345   0.99888  -0.04539
           Z            0.01329   0.04521   0.99889
 This molecule is an asymmetric top.
 Rotational symmetry number  1.
 Warning -- assumption of classical behavior for rotation
           may cause significant error
 Rotational temperatures (Kelvin)      0.06326     0.01785     0.01657
 Rotational constants (GHZ):           1.31804     0.37201     0.34527
    1 imaginary frequencies ignored.
 Zero-point vibrational energy     560678.0 (Joules/Mol)
                                  134.00525 (Kcal/Mol)
 Warning -- explicit consideration of  20 degrees of freedom as
           vibrations may cause significant error
 Vibrational temperatures:     26.36    73.52   161.62   200.44   295.89
          (Kelvin)            350.23   373.35   392.77   423.09   451.16
                              467.99   531.84   552.20   620.69   654.93
                              658.76   679.65   732.87   807.08   858.44
                              901.33   909.60  1014.73  1072.59  1100.86
                             1162.61  1168.02  1186.63  1233.80  1329.26
                             1362.66  1373.97  1421.15  1473.27  1607.74
                             1621.46  1655.41  1684.87  1716.93  1728.54
                             1771.72  1787.19  1868.74  1904.71  1911.98
                             1959.19  1992.52  2000.47  2040.32  2066.12
                             2150.12  2202.60  2261.87  2272.26  2381.92
                             2396.83  2407.38  2425.29  2691.00  4441.71
                             4502.10  4570.28  4591.69  4623.51  4649.17
                             4875.22  4964.58  5002.27  5338.49  5380.85
                             5397.74

 Zero-point correction=                           0.213551 (Hartree/Particle)
 Thermal correction to Energy=                    0.226283
 Thermal correction to Enthalpy=                  0.227228
 Thermal correction to Gibbs Free Energy=         0.173624
 Sum of electronic and zero-point Energies=           -705.484875
 Sum of electronic and thermal Energies=              -705.472142
 Sum of electronic and thermal Enthalpies=            -705.471198
 Sum of electronic and thermal Free Energies=         -705.524802

                     E (Thermal)             CV                S
                      KCal/Mol        Cal/Mol-Kelvin    Cal/Mol-Kelvin
 Total                  141.995             49.534            112.819
 Electronic               0.000              0.000              0.000
 Translational            0.889              2.981             41.755
 Rotational               0.889              2.981             31.918
 Vibrational            140.217             43.573             39.145
 Vibration     1          0.593              1.986              6.808
 Vibration     2          0.595              1.977              4.774
 Vibration     3          0.607              1.939              3.228
 Vibration     4          0.615              1.914              2.813
 Vibration     5          0.640              1.832              2.082
 Vibration     6          0.659              1.774              1.778
 Vibration     7          0.668              1.747              1.665
 Vibration     8          0.676              1.723              1.577
 Vibration     9          0.689              1.685              1.450
 Vibration    10          0.701              1.648              1.343
 Vibration    11          0.709              1.625              1.283
 Vibration    12          0.742              1.535              1.081
 Vibration    13          0.753              1.505              1.024
 Vibration    14          0.792              1.402              0.854
 Vibration    15          0.814              1.349              0.780
 Vibration    16          0.816              1.343              0.772
 Vibration    17          0.829              1.311              0.731
 Vibration    18          0.865              1.229              0.635
 Vibration    19          0.917              1.116              0.522
 Vibration    20          0.954              1.039              0.455

                           ! Non-Optimized Parameters !
 Normal termination of Gaussian 16 at Sun Jul 18 16:27:34 2021.

 ----------------------------------------------------------------------
 #p b3lyp/6-31G(d) scrf=(iefpcm,read,solvent=n-octanol) geom=allcheck g
 uess=read
 ----------------------------------------------------------------------

 Structure from the checkpoint file:  "SET_328_BBB292_conf1.geo_075_060_105.chk"
 ---------------------------------------------
 SET_328_BBB292_conf1.geo_075_060_105 geometry
 ---------------------------------------------
 Charge =  1 Multiplicity = 1

 SCF Done:  E(RB3LYP) =  -705.700635226     A.U. after    1 cycles
 Normal termination of Gaussian 16 at Sun Jul 18 16:28:02 2021.

 -----------------------------
 #p B3LYP/6-31G* geom=allcheck
 -----------------------------

 Structure from the checkpoint file:  "SET_328_BBB292_conf1.geo_075_060_105.chk"
 ---------------------------------------------
 SET_328_BBB292_conf1.geo_075_060_105 geometry
 ---------------------------------------------
 Charge =  1 Multiplicity = 1

 SCF Done:  E(RB3LYP) =  -705.554361690     A.U. after   16 cycles
 Normal termination of Gaussian 16 at Sun Jul 18 16:29:41 2021.
 Gaussian 16:  ES64L-G16RevA.03 25-Dec-2016

 --------------------------------------------------------
 #p mp2/aug-cc-pVDZ scf=tight maxdisk=180GB geom=allcheck
 --------------------------------------------------------

 Structure from the checkpoint file:  "SET_328_BBB292_conf1.geo_075_060_105.chk"
 ---------------------------------------------
 SET_328_BBB292_conf1.geo_075_060_105 geometry
 ---------------------------------------------
 Charge =  1 Multiplicity = 1

                         Standard orientation:
 ---------------------------------------------------------------------
 Center     Atomic      Atomic             Coordinates (Angstroms)
 Number     Number       Type             X           Y           Z
 ---------------------------------------------------------------------
      1          7           0       -3.629488    1.170466    0.276597
      2          1           0       -4.242365    1.206704   -0.551831
      3          1           0       -3.620044    2.122395    0.671058
      4          6           0       -2.228950    0.719392   -0.077787
      5          6           0       -2.282737   -0.627624   -0.819555
      6          8           0       -2.706210   -1.707076   -0.136077
      7          1           0       -2.911083   -1.520578    0.796924
      8          8           0       -1.959431   -0.721331   -1.975902
      9          1           0       -1.867625    1.436418   -0.811640
     10          6           0       -1.309075    0.713094    1.159444
     11          1           0       -1.711920    0.047549    1.930004
     12          1           0       -1.311100    1.720458    1.588104
     13          6           0        0.099640    0.281970    0.806180
     14          6           0        0.987234    1.185489    0.197966
     15          1           0        0.683896    2.211894    0.010333
     16          6           0        2.265747    0.777541   -0.158110
     17          8           0        3.214774    1.568801   -0.747600
     18          1           0        2.870878    2.463719   -0.902296
     19          6           0        2.685009   -0.545340    0.085642
     20          8           0        3.938235   -0.934332   -0.268250
     21          1           0        4.374600   -0.168819   -0.680620
     22          6           0        1.812248   -1.438141    0.694747
     23          1           0        2.147788   -2.451201    0.884865
     24          6           0        0.526407   -1.024941    1.052931
     25          1           0       -0.142638   -1.731703    1.531230
     26          1           0       -4.096056    0.572780    0.971579
 ---------------------------------------------------------------------

 SCF Done:  E(RHF) =  -701.563280388     A.U. after   17 cycles
 E2 =    -0.2203173405D+01 EUMP2 =    -0.70376645379346D+03

 The electronic state is 1-A.
 Alpha  occ. eigenvalues --  -20.78719 -20.71977 -20.71806 -20.69191 -15.92278
 Alpha  occ. eigenvalues --  -11.56276 -11.50939 -11.43102 -11.42354 -11.41610
 Alpha  occ. eigenvalues --  -11.38007 -11.36983 -11.36281 -11.34989  -1.62768
 Alpha  occ. eigenvalues --   -1.53305  -1.53044  -1.52713  -1.49333  -1.29042
 Alpha  occ. eigenvalues --   -1.23897  -1.14716  -1.13310  -1.07297  -1.01016
 Alpha  occ. eigenvalues --   -0.98582  -0.98132  -0.97468  -0.92773  -0.91123
 Alpha  occ. eigenvalues --   -0.86742  -0.84582  -0.84094  -0.81903  -0.79026
 Alpha  occ. eigenvalues --   -0.78609  -0.75771  -0.74566  -0.73474  -0.72311
 Alpha  occ. eigenvalues --   -0.72029  -0.71191  -0.69311  -0.67127  -0.65815
 Alpha  occ. eigenvalues --   -0.64329  -0.63246  -0.61588  -0.61281  -0.58686
 Alpha  occ. eigenvalues --   -0.44995  -0.41827
 Alpha virt. eigenvalues --   -0.12453  -0.08933  -0.07925  -0.06741  -0.04772
 Alpha virt. eigenvalues --   -0.04654  -0.03727  -0.03577  -0.02608  -0.01771
 Alpha virt. eigenvalues --   -0.01690  -0.01228  -0.00465   0.00373   0.00509

 Mulliken charges:
               1
     1  N   -0.479219
     2  H    0.225242
     3  H    0.219615
     4  C    0.495005
     5  C    1.184732
     6  O   -0.689178
     7  H    0.217536
     8  O   -0.698099
     9  H   -0.263615
    10  C    0.615730
    11  H   -0.241693
    12  H   -0.128886
    13  C    0.930910
    14  C    0.473733
    15  H   -0.743940
    16  C    0.381819
    17  O   -0.954075
    18  H    0.224238
    19  C    0.539234
    20  O   -0.920529
    21  H    0.210341
    22  C    0.686599
    23  H   -0.500908
    24  C    0.722868
    25  H   -0.725889
    26  H    0.218428
 Sum of Mulliken charges =   1.00000

 Dipole moment (field-independent basis, Debye):
    X=            -14.4325    Y=              8.1967    Z=              4.4373  Tot=             17.1806
 Quadrupole moment (field-independent basis, Debye-Ang):
   XX=            -16.4963   YY=            -63.3959   ZZ=            -82.8789
   XY=            -14.1708   XZ=            -15.9039   YZ=             -7.2340

 Normal termination of Gaussian 16 at Sun Jul 18 16:53:01 2021.
