 Gaussian 16, Revision A.03,

 ---------------------------------------------------------------
 #p b3lyp/6-31G(d) opt freq scrf=(iefpcm,read,solvent=n-octanol)
 ---------------------------------------------------------------

 --------------------------------------------
 SET_328_BBB29_conf1.geo_285_180_180 geometry
 --------------------------------------------
 Symbolic Z-matrix:
 Charge =  1 Multiplicity = 1

 SCF Done:  E(RB3LYP) =  -1548.95854931     A.U. after   14 cycles
 SCF Done:  E(RB3LYP) =  -1548.98706945     A.U. after   11 cycles
 SCF Done:  E(RB3LYP) =  -1548.96691806     A.U. after   12 cycles
 SCF Done:  E(RB3LYP) =  -1548.99707340     A.U. after   11 cycles
 SCF Done:  E(RB3LYP) =  -1548.99843567     A.U. after   11 cycles
 SCF Done:  E(RB3LYP) =  -1548.99806789     A.U. after   11 cycles
 SCF Done:  E(RB3LYP) =  -1548.99957716     A.U. after   11 cycles
 SCF Done:  E(RB3LYP) =  -1548.99996608     A.U. after   11 cycles
 SCF Done:  E(RB3LYP) =  -1549.00059112     A.U. after   11 cycles
 SCF Done:  E(RB3LYP) =  -1549.00059473     A.U. after   12 cycles
 SCF Done:  E(RB3LYP) =  -1549.00131830     A.U. after    8 cycles
 SCF Done:  E(RB3LYP) =  -1549.00132735     A.U. after    8 cycles
 SCF Done:  E(RB3LYP) =  -1549.00132538     A.U. after    8 cycles
 SCF Done:  E(RB3LYP) =  -1549.00132583     A.U. after    8 cycles
 SCF Done:  E(RB3LYP) =  -1549.00132584     A.U. after    7 cycles
 SCF Done:  E(RB3LYP) =  -1549.00132585     A.U. after    6 cycles
 Optimization completed.
    -- Stationary point found.
 Normal termination of Gaussian 16 at Sun Jul 18 15:42:05 2021.

 --------------------------------------------------------------------
 #P Geom=AllCheck Guess=TCheck SCRF=Check GenChk RB3LYP/6-31G(d) Freq
 --------------------------------------------------------------------

 Structure from the checkpoint file:  "SET_328_BBB29_conf1.geo_285_180_180.chk"
 --------------------------------------------
 SET_328_BBB29_conf1.geo_285_180_180 geometry
 --------------------------------------------
 Charge =  1 Multiplicity = 1

 SCF Done:  E(RB3LYP) =  -1549.00132585     A.U. after    1 cycles

  Exact polarizability: 359.477  13.693 273.166  -8.694   5.937 114.720
 Approx polarizability: 421.645  10.972 348.548 -10.749  10.390 154.263

                      1                      2                      3
                      A                      A                      A
 Frequencies --     36.4579                58.8869                62.9730
 Red. masses --      6.4573                 4.1968                 4.5693
 Frc consts  --      0.0051                 0.0086                 0.0107
 IR Inten    --      7.7599                 7.2010                15.4441

                      4                      5                      6
                      A                      A                      A
 Frequencies --     85.8111               124.6234               146.5390
 Red. masses --      5.5648                 2.6405                 2.8058
 Frc consts  --      0.0241                 0.0242                 0.0355
 IR Inten    --      0.9800                 4.6140                 9.6936

                      7                      8                      9
                      A                      A                      A
 Frequencies --    165.6084               179.4408               212.6496
 Red. masses --      6.9204                 3.1012                 4.6791
 Frc consts  --      0.1118                 0.0588                 0.1247
 IR Inten    --      0.7420                11.6072                 2.2950

                     10                     11                     12
                      A                      A                      A
 Frequencies --    214.9060               248.4701               286.3133
 Red. masses --      3.4082                 3.6788                 3.8640
 Frc consts  --      0.0927                 0.1338                 0.1866
 IR Inten    --      4.6184                 3.8888                 1.7949

                     13                     14                     15
                      A                      A                      A
 Frequencies --    290.8061               304.8573               335.5233
 Red. masses --      4.5629                 1.7700                 5.6801
 Frc consts  --      0.2274                 0.0969                 0.3768
 IR Inten    --      0.4637                 2.4343                 4.4823

                     16                     17                     18
                      A                      A                      A
 Frequencies --    356.1308               389.0972               413.0390
 Red. masses --      6.0713                 5.8678                 3.3340
 Frc consts  --      0.4537                 0.5234                 0.3351
 IR Inten    --      3.7083                 5.3160                 6.7747

                     19                     20                     21
                      A                      A                      A
 Frequencies --    436.2530               450.3607               462.0886
 Red. masses --      5.1151                 3.8067                 3.2876
 Frc consts  --      0.5736                 0.4549                 0.4136
 IR Inten    --      1.9938                 6.8992                 1.5968

                     22                     23                     24
                      A                      A                      A
 Frequencies --    477.9974               497.9451               546.8474
 Red. masses --      4.0395                 4.7681                 4.6684
 Frc consts  --      0.5438                 0.6966                 0.8225
 IR Inten    --      6.2103                 5.1487                 5.0144

                     25                     26                     27
                      A                      A                      A
 Frequencies --    555.7613               590.5457               624.4921
 Red. masses --      6.2921                 5.6522                 5.7948
 Frc consts  --      1.1450                 1.1614                 1.3315
 IR Inten    --      8.8555                 4.4489                 0.7889

                     28                     29                     30
                      A                      A                      A
 Frequencies --    655.7560               691.2385               713.3434
 Red. masses --      6.0455                 6.2457                 5.0658
 Frc consts  --      1.5317                 1.7583                 1.5188
 IR Inten    --     12.7742                 4.0740                 2.4145

                     31                     32                     33
                      A                      A                      A
 Frequencies --    728.9058               738.5166               763.0635
 Red. masses --      5.2865                 4.0571                 1.2070
 Frc consts  --      1.6548                 1.3037                 0.4141
 IR Inten    --      1.6350                 2.7862                25.8894

                     34                     35                     36
                      A                      A                      A
 Frequencies --    766.6327               804.4386               815.5071
 Red. masses --      1.1672                 4.9978                 1.3458
 Frc consts  --      0.4042                 1.9055                 0.5273
 IR Inten    --     58.1648                 5.7889                32.1509

                     37                     38                     39
                      A                      A                      A
 Frequencies --    855.8523               863.6757               871.2473
 Red. masses --      1.4381                 1.4177                 1.3305
 Frc consts  --      0.6206                 0.6231                 0.5950
 IR Inten    --     26.5080                19.2753                 0.8679

                     40                     41                     42
                      A                      A                      A
 Frequencies --    939.1377               943.5469               944.4101
 Red. masses --      2.0408                 1.5971                 1.3441
 Frc consts  --      1.0605                 0.8378                 0.7063
 IR Inten    --     83.9638                52.6679                11.1170

                     43                     44                     45
                      A                      A                      A
 Frequencies --    957.7564               981.7526              1006.7736
 Red. masses --      2.4581                 1.2527                 3.3342
 Frc consts  --      1.3285                 0.7114                 1.9912
 IR Inten    --     20.6292                 0.0591                 5.4575

                     46                     47                     48
                      A                      A                      A
 Frequencies --   1019.5621              1052.9819              1070.6872
 Red. masses --      1.2690                 3.0520                 5.6479
 Frc consts  --      0.7772                 1.9938                 3.8147
 IR Inten    --      5.4158                20.7538                31.7717

                     49                     50                     51
                      A                      A                      A
 Frequencies --   1072.4212              1088.1261              1131.1717
 Red. masses --      6.4294                 2.4428                 4.1305
 Frc consts  --      4.3566                 1.7041                 3.1140
 IR Inten    --     20.3034                 5.4823                13.5788

                     52                     53                     54
                      A                      A                      A
 Frequencies --   1146.1039              1161.7719              1172.2364
 Red. masses --      2.0327                 1.5567                 1.4740
 Frc consts  --      1.5732                 1.2379                 1.1934
 IR Inten    --     71.4632                55.7532                 6.7199

                     55                     56                     57
                      A                      A                      A
 Frequencies --   1179.3461              1191.7512              1202.5269
 Red. masses --      1.6766                 1.7061                 1.1674
 Frc consts  --      1.3739                 1.4277                 0.9946
 IR Inten    --     57.9245                36.8086                 2.5010

                     58                     59                     60
                      A                      A                      A
 Frequencies --   1274.1196              1286.6753              1304.2156
 Red. masses --      1.9621                 2.5689                 1.4039
 Frc consts  --      1.8767                 2.5057                 1.4070
 IR Inten    --    156.0645               113.5646                32.2662

                     61                     62                     63
                      A                      A                      A
 Frequencies --   1328.6370              1337.7562              1349.8877
 Red. masses --      1.6675                 7.5778                 1.3449
 Frc consts  --      1.7343                 7.9900                 1.4439
 IR Inten    --      7.0773                56.6325                 4.1077

                     64                     65                     66
                      A                      A                      A
 Frequencies --   1355.9367              1366.0174              1378.7663
 Red. masses --      6.8605                 1.2543                 1.1656
 Frc consts  --      7.4316                 1.3790                 1.3055
 IR Inten    --      1.0980                40.8060                 0.9611

                     67                     68                     69
                      A                      A                      A
 Frequencies --   1399.3939              1433.9859              1447.7546
 Red. masses --      1.6098                 1.3752                 1.5141
 Frc consts  --      1.8573                 1.6661                 1.8698
 IR Inten    --     46.8313                51.9899               104.7571

                     70                     71                     72
                      A                      A                      A
 Frequencies --   1454.9534              1488.9325              1513.9989
 Red. masses --      2.2872                 2.2808                 2.3324
 Frc consts  --      2.8527                 2.9792                 3.1500
 IR Inten    --     87.6162                28.3020               434.6348

                     73                     74                     75
                      A                      A                      A
 Frequencies --   1522.1256              1529.8381              1543.6238
 Red. masses --      1.1455                 1.1789                 1.5734
 Frc consts  --      1.5637                 1.6257                 2.2088
 IR Inten    --     20.3478                 5.2503                28.3221

                     76                     77                     78
                      A                      A                      A
 Frequencies --   1548.5623              1583.7111              1614.1540
 Red. masses --      1.2746                 1.1526                 6.1678
 Frc consts  --      1.8009                 1.7033                 9.4683
 IR Inten    --      7.0816               192.4357                43.6947

                     79                     80                     81
                      A                      A                      A
 Frequencies --   1628.4442              1636.3377              1653.1002
 Red. masses --      6.1910                 6.0468                 1.0464
 Frc consts  --      9.6728                 9.5394                 1.6848
 IR Inten    --     97.4775                 9.0271                76.0825

                     82                     83                     84
                      A                      A                      A
 Frequencies --   1655.1572              1665.9895              3088.3859
 Red. masses --      6.0797                 1.0335                 1.0603
 Frc consts  --      9.8131                 1.6901                 5.9588
 IR Inten    --     54.6925                79.6645                24.4188

                     85                     86                     87
                      A                      A                      A
 Frequencies --   3108.2141              3122.0294              3131.7383
 Red. masses --      1.0632                 1.0625                 1.1015
 Frc consts  --      6.0518                 6.1017                 6.3649
 IR Inten    --      7.4631                26.5734                10.2305

                     88                     89                     90
                      A                      A                      A
 Frequencies --   3154.1606              3179.2932              3213.2177
 Red. masses --      1.1030                 1.1086                 1.0868
 Frc consts  --      6.4651                 6.6019                 6.6112
 IR Inten    --      9.7069                25.2758                 1.2788

                     91                     92                     93
                      A                      A                      A
 Frequencies --   3220.1818              3221.8150              3237.2327
 Red. masses --      1.0903                 1.0898                 1.0961
 Frc consts  --      6.6611                 6.6648                 6.7677
 IR Inten    --     13.9683                 5.6281                34.7935

                     94                     95                     96
                      A                      A                      A
 Frequencies --   3253.3519              3262.2498              3291.9102
 Red. masses --      1.0941                 1.0897                 1.0889
 Frc consts  --      6.8229                 6.8329                 6.9525
 IR Inten    --      2.8382                20.1058                 3.6740

                     97                     98                     99
                      A                      A                      A
 Frequencies --   3401.4946              3465.9697              3503.3752
 Red. masses --      1.0378                 1.0911                 1.0900
 Frc consts  --      7.0745                 7.7224                 7.8824
 IR Inten    --    129.9698               185.1124               182.1116

 - Thermochemistry -
 -------------------
 Temperature   298.150 Kelvin.  Pressure   1.00000 Atm.
 Atom     1 has atomic number  7 and mass  14.00307

 Molecular mass:   291.07227 amu.
 Principal axes and moments of inertia in atomic units:
                           1         2         3
     Eigenvalues --  5151.533417141.05916**********
           X            0.99974  -0.02225  -0.00450
           Y            0.02227   0.99975   0.00252
           Z            0.00444  -0.00262   0.99999
 This molecule is an asymmetric top.
 Rotational symmetry number  1.
 Warning -- assumption of classical behavior for rotation
           may cause significant error
 Rotational temperatures (Kelvin)      0.01681     0.01213     0.00730
 Rotational constants (GHZ):           0.35033     0.25273     0.15211
 Zero-point vibrational energy     761072.4 (Joules/Mol)
                                  181.90066 (Kcal/Mol)
 Warning -- explicit consideration of  26 degrees of freedom as
           vibrations may cause significant error
 Vibrational temperatures:     52.45    84.73    90.60   123.46   179.31
          (Kelvin)            210.84   238.27   258.18   305.96   309.20
                              357.49   411.94   418.41   438.62   482.74
                              512.39   559.82   594.27   627.67   647.97
                              664.84   687.73   716.43   786.79   799.62
                              849.66   898.50   943.49   994.54  1026.34
                             1048.73  1062.56  1097.88  1103.01  1157.41
                             1173.33  1231.38  1242.64  1253.53  1351.21
                             1357.55  1358.80  1378.00  1412.52  1448.52
                             1466.92  1515.01  1540.48  1542.97  1565.57
                             1627.50  1648.99  1671.53  1686.59  1696.82
                             1714.66  1730.17  1833.17  1851.24  1876.48
                             1911.61  1924.73  1942.19  1950.89  1965.39
                             1983.74  2013.42  2063.19  2083.00  2093.35
                             2142.24  2178.31  2190.00  2201.10  2220.93
                             2228.04  2278.61  2322.41  2342.97  2354.33
                             2378.44  2381.40  2396.99  4443.50  4472.03
                             4491.90  4505.87  4538.13  4574.29  4623.10
                             4633.12  4635.47  4657.66  4680.85  4693.65
                             4736.32  4893.99  4986.76  5040.58

 Zero-point correction=                           0.289877 (Hartree/Particle)
 Thermal correction to Energy=                    0.306426
 Thermal correction to Enthalpy=                  0.307370
 Thermal correction to Gibbs Free Energy=         0.245268
 Sum of electronic and zero-point Energies=          -1548.711449
 Sum of electronic and thermal Energies=             -1548.694900
 Sum of electronic and thermal Enthalpies=           -1548.693956
 Sum of electronic and thermal Free Energies=        -1548.756058

                     E (Thermal)             CV                S
                      KCal/Mol        Cal/Mol-Kelvin    Cal/Mol-Kelvin
 Total                  192.285             65.405            130.704
 Electronic               0.000              0.000              0.000
 Translational            0.889              2.981             42.903
 Rotational               0.889              2.981             34.433
 Vibrational            190.508             59.443             53.368
 Vibration     1          0.594              1.982              5.443
 Vibration     2          0.596              1.974              4.494
 Vibration     3          0.597              1.972              4.362
 Vibration     4          0.601              1.959              3.753
 Vibration     5          0.610              1.928              3.027
 Vibration     6          0.617              1.906              2.717
 Vibration     7          0.624              1.885              2.485
 Vibration     8          0.629              1.868              2.334
 Vibration     9          0.644              1.822              2.021
 Vibration    10          0.645              1.818              2.002
 Vibration    11          0.662              1.765              1.741
 Vibration    12          0.684              1.699              1.496
 Vibration    13          0.687              1.691              1.469
 Vibration    14          0.696              1.664              1.390
 Vibration    15          0.717              1.605              1.233
 Vibration    16          0.732              1.563              1.139
 Vibration    17          0.757              1.493              1.004
 Vibration    18          0.777              1.442              0.916
 Vibration    19          0.797              1.391              0.838
 Vibration    20          0.809              1.360              0.795
 Vibration    21          0.820              1.334              0.760
 Vibration    22          0.834              1.299              0.715
 Vibration    23          0.853              1.255              0.663
 Vibration    24          0.902              1.147              0.551
 Vibration    25          0.911              1.127              0.532
 Vibration    26          0.948              1.052              0.466

                           ! Non-Optimized Parameters !
 Normal termination of Gaussian 16 at Sun Jul 18 16:24:19 2021.

 ----------------------------------------------------------------------
 #p b3lyp/6-31G(d) scrf=(iefpcm,read,solvent=n-octanol) geom=allcheck g
 uess=read
 ----------------------------------------------------------------------

 Structure from the checkpoint file:  "SET_328_BBB29_conf1.geo_285_180_180.chk"
 --------------------------------------------
 SET_328_BBB29_conf1.geo_285_180_180 geometry
 --------------------------------------------
 Charge =  1 Multiplicity = 1

 SCF Done:  E(RB3LYP) =  -1549.00415446     A.U. after    1 cycles
 Normal termination of Gaussian 16 at Sun Jul 18 16:25:18 2021.

 -----------------------------
 #p B3LYP/6-31G* geom=allcheck
 -----------------------------

 Structure from the checkpoint file:  "SET_328_BBB29_conf1.geo_285_180_180.chk"
 --------------------------------------------
 SET_328_BBB29_conf1.geo_285_180_180 geometry
 --------------------------------------------
 Charge =  1 Multiplicity = 1

 SCF Done:  E(RB3LYP) =  -1548.86987816     A.U. after   15 cycles
 Normal termination of Gaussian 16 at Sun Jul 18 16:28:03 2021.
 Gaussian 16:  ES64L-G16RevA.03 25-Dec-2016

 --------------------------------------------------------
 #p mp2/aug-cc-pVDZ scf=tight maxdisk=180GB geom=allcheck
 --------------------------------------------------------

 Structure from the checkpoint file:  "SET_328_BBB29_conf1.geo_285_180_180.chk"
 --------------------------------------------
 SET_328_BBB29_conf1.geo_285_180_180 geometry
 --------------------------------------------
 Charge =  1 Multiplicity = 1

                         Standard orientation:
 ---------------------------------------------------------------------
 Center     Atomic      Atomic             Coordinates (Angstroms)
 Number     Number       Type             X           Y           Z
 ---------------------------------------------------------------------
      1          7           0       -1.110428    4.973916   -0.522050
      2          1           0       -0.316287    5.202534   -1.135753
      3          1           0       -1.415445    5.856923   -0.090117
      4          6           0       -0.753339    3.951468    0.518767
      5          1           0       -1.639462    3.822262    1.140924
      6          1           0        0.032100    4.396120    1.132320
      7          6           0       -0.305853    2.636431   -0.105159
      8          1           0        0.552424    2.804460   -0.758578
      9          1           0       -1.104048    2.224215   -0.727260
     10          6           0        0.069342    1.629610    1.005151
     11          1           0       -0.782846    1.488757    1.674578
     12          1           0        0.881843    2.036992    1.611830
     13          7           0        0.484358    0.304840    0.549278
     14          6           0       -0.515982   -0.642668    0.250120
     15          6           0       -1.858710   -0.257518    0.114818
     16          1           0       -2.154212    0.773923    0.219490
     17          6           0       -2.841242   -1.205795   -0.156656
     18         17           0       -4.506893   -0.662556   -0.291778
     19          6           0       -2.539288   -2.547490   -0.336989
     20          1           0       -3.313694   -3.269489   -0.560171
     21          6           0       -1.204284   -2.932716   -0.215062
     22          1           0       -0.933872   -3.975451   -0.340009
     23          6           0       -0.208483   -2.011406    0.100240
     24         16           0        1.422006   -2.613411    0.458903
     25          6           0        2.367796   -1.179499   -0.001490
     26          6           0        1.831402    0.114133    0.151940
     27          6           0        2.685874    1.203136   -0.084461
     28          1           0        2.317890    2.213592    0.024237
     29          6           0        4.017975    1.012194   -0.455471
     30          1           0        4.648716    1.879085   -0.616737
     31          6           0        4.524845   -0.271281   -0.631909
     32          1           0        5.554061   -0.427239   -0.932610
     33          6           0        3.686631   -1.363119   -0.412197
     34          1           0        4.059543   -2.374080   -0.535572
     35          1           0       -1.879255    4.661236   -1.129263
 ---------------------------------------------------------------------

 SCF Done:  E(RHF) =  -1543.11440164     A.U. after   19 cycles
 E2 =    -0.2703911618D+01 EUMP2 =    -0.15458183132585D+04

 The electronic state is 1-A.
 Alpha  occ. eigenvalues -- -104.92435 -92.05433 -15.90669 -15.71212 -11.48710
 Alpha  occ. eigenvalues --  -11.41504 -11.40696 -11.40371 -11.40040 -11.39609
 Alpha  occ. eigenvalues --  -11.36671 -11.36384 -11.34851 -11.34547 -11.34147
 Alpha  occ. eigenvalues --  -11.33777 -11.33686 -11.33566 -11.32656 -10.65000
 Alpha  occ. eigenvalues --   -9.05611  -8.11779  -8.11450  -8.11434  -6.73814
 Alpha  occ. eigenvalues --   -6.73669  -6.73448  -1.51620  -1.39786  -1.27982
 Alpha  occ. eigenvalues --   -1.25629  -1.23645  -1.21358  -1.15749  -1.13542
 Alpha  occ. eigenvalues --   -1.11769  -1.09916  -1.08401  -1.02141  -1.00033
 Alpha  occ. eigenvalues --   -0.97339  -0.95404  -0.95021  -0.92578  -0.91943
 Alpha  occ. eigenvalues --   -0.86368  -0.85614  -0.83242  -0.80354  -0.79360
 Alpha  occ. eigenvalues --   -0.75920  -0.75225  -0.74245  -0.73321  -0.73075
 Alpha  occ. eigenvalues --   -0.72152  -0.70437  -0.68582  -0.68493  -0.66673
 Alpha  occ. eigenvalues --   -0.65384  -0.65172  -0.63613  -0.62202  -0.62019
 Alpha  occ. eigenvalues --   -0.60661  -0.58330  -0.57028  -0.54999  -0.54152
 Alpha  occ. eigenvalues --   -0.53833  -0.50004  -0.44277  -0.43054  -0.40868
 Alpha  occ. eigenvalues --   -0.35960
 Alpha virt. eigenvalues --   -0.11739  -0.08005  -0.07952  -0.06426  -0.04007
 Alpha virt. eigenvalues --   -0.03961  -0.03688  -0.03255  -0.02258  -0.01658
 Alpha virt. eigenvalues --   -0.01485  -0.01185  -0.00737  -0.00052   0.00121

 Mulliken charges:
               1
     1  N   -0.551121
     2  H    0.237978
     3  H    0.169104
     4  C    1.397202
     5  H   -0.120272
     6  H   -0.111048
     7  C    0.062716
     8  H   -0.184450
     9  H   -0.165954
    10  C    1.023854
    11  H   -0.298885
    12  H   -0.310235
    13  N   -1.090918
    14  C   -0.308013
    15  C    1.665446
    16  H   -0.845839
    17  C   -0.891073
    18  Cl  -0.372538
    19  C    0.796615
    20  H   -0.441464
    21  C    0.857190
    22  H   -0.558175
    23  C    0.239832
    24  S    0.245511
    25  C    0.268410
    26  C   -0.167858
    27  C    1.403946
    28  H   -0.920350
    29  C    0.210582
    30  H   -0.515261
    31  C    0.599649
    32  H   -0.433841
    33  C    0.380891
    34  H   -0.512918
    35  H    0.241287
 Sum of Mulliken charges =   1.00000

 Dipole moment (field-independent basis, Debye):
    X=             -2.4432    Y=             21.0570    Z=             -1.8283  Tot=             21.2769
 Quadrupole moment (field-independent basis, Debye-Ang):
   XX=           -110.3414   YY=             -4.2164   ZZ=           -127.4959
   XY=            -20.4290   XZ=             -0.8393   YZ=             -5.9499

 Normal termination of Gaussian 16 at Sun Jul 18 17:50:48 2021.
