 Gaussian 16, Revision A.03,

 ---------------------------------------------------------------
 #p b3lyp/6-31G(d) opt freq scrf=(iefpcm,read,solvent=n-octanol)
 ---------------------------------------------------------------

 ---------------------------------------------
 SET_328_BBB268_conf1.geo_180_090_255 geometry
 ---------------------------------------------
 Symbolic Z-matrix:
 Charge =  1 Multiplicity = 1

 SCF Done:  E(RB3LYP) =  -976.571114711     A.U. after   14 cycles
 SCF Done:  E(RB3LYP) =  -976.621317481     A.U. after   11 cycles
 SCF Done:  E(RB3LYP) =  -976.657579877     A.U. after   12 cycles
 SCF Done:  E(RB3LYP) =  -976.661535175     A.U. after   11 cycles
 SCF Done:  E(RB3LYP) =  -976.662699414     A.U. after   11 cycles
 SCF Done:  E(RB3LYP) =  -976.664569190     A.U. after   13 cycles
 SCF Done:  E(RB3LYP) =  -976.665208542     A.U. after   11 cycles
 SCF Done:  E(RB3LYP) =  -976.664915694     A.U. after   13 cycles
 SCF Done:  E(RB3LYP) =  -976.666388236     A.U. after   13 cycles
 SCF Done:  E(RB3LYP) =  -976.666727759     A.U. after   10 cycles
 SCF Done:  E(RB3LYP) =  -976.667405774     A.U. after   10 cycles
 SCF Done:  E(RB3LYP) =  -976.667406142     A.U. after    6 cycles
 SCF Done:  E(RB3LYP) =  -976.667414958     A.U. after    9 cycles
 SCF Done:  E(RB3LYP) =  -976.667415360     A.U. after    8 cycles
 SCF Done:  E(RB3LYP) =  -976.667406152     A.U. after   10 cycles
 SCF Done:  E(RB3LYP) =  -976.667406218     A.U. after    7 cycles
 Optimization completed on the basis of negligible forces.
    -- Stationary point found.
 Normal termination of Gaussian 16 at Sun Jul 18 18:52:20 2021.

 --------------------------------------------------------------------
 #P Geom=AllCheck Guess=TCheck SCRF=Check GenChk RB3LYP/6-31G(d) Freq
 --------------------------------------------------------------------

 Structure from the checkpoint file:  "SET_328_BBB268_conf1.geo_180_090_255.chk"
 ---------------------------------------------
 SET_328_BBB268_conf1.geo_180_090_255 geometry
 ---------------------------------------------
 Charge =  1 Multiplicity = 1

 SCF Done:  E(RB3LYP) =  -976.667406218     A.U. after    1 cycles

  Exact polarizability: 413.956 -17.019 285.889  -4.110   0.879 153.738
 Approx polarizability: 465.806 -16.126 356.392  -6.650   4.238 206.688

 ******    1 imaginary frequencies (negative Signs) ******

                      1                      2                      3
                      A                      A                      A
 Frequencies --    -60.4797                20.7783                28.8101
 Red. masses --      1.0216                 4.9237                 2.7279
 Frc consts  --      0.0022                 0.0013                 0.0013
 IR Inten    --      0.2209                 7.8351                 0.5265

                      4                      5                      6
                      A                      A                      A
 Frequencies --     41.9844                53.4248                64.3439
 Red. masses --      4.0416                 1.9256                 3.2396
 Frc consts  --      0.0042                 0.0032                 0.0079
 IR Inten    --      0.3686                 1.1026                 3.4934

                      7                      8                      9
                      A                      A                      A
 Frequencies --     67.2691                81.4585               105.7592
 Red. masses --      2.4423                 3.7536                 1.2184
 Frc consts  --      0.0065                 0.0147                 0.0080
 IR Inten    --      0.3704                 0.7152                 0.2198

                     10                     11                     12
                      A                      A                      A
 Frequencies --    108.6018               131.6235               144.1368
 Red. masses --      2.5570                 3.0664                 1.1833
 Frc consts  --      0.0178                 0.0313                 0.0145
 IR Inten    --      1.9842                 1.9327                 0.3949

                     13                     14                     15
                      A                      A                      A
 Frequencies --    164.8185               193.7801               225.9216
 Red. masses --      4.4243                 4.1918                 2.5011
 Frc consts  --      0.0708                 0.0927                 0.0752
 IR Inten    --      0.9282                 0.8217                 1.3738

                     16                     17                     18
                      A                      A                      A
 Frequencies --    232.4526               236.9234               243.7328
 Red. masses --      3.2828                 3.0026                 4.2210
 Frc consts  --      0.1045                 0.0993                 0.1477
 IR Inten    --      8.2783                 0.4400                 2.7353

                     19                     20                     21
                      A                      A                      A
 Frequencies --    261.2822               307.9107               329.9933
 Red. masses --      4.7083                 2.9080                 2.8323
 Frc consts  --      0.1894                 0.1624                 0.1817
 IR Inten    --      4.5198                 0.9987                 1.5290

                     22                     23                     24
                      A                      A                      A
 Frequencies --    355.3431               372.3148               389.5255
 Red. masses --      3.7592                 4.3331                 3.3609
 Frc consts  --      0.2797                 0.3539                 0.3005
 IR Inten    --      2.6476                 4.3830                17.4073

                     25                     26                     27
                      A                      A                      A
 Frequencies --    409.4248               425.0044               449.9165
 Red. masses --      4.2705                 3.0849                 3.1985
 Frc consts  --      0.4218                 0.3283                 0.3815
 IR Inten    --      3.7001                 1.5644                 6.1763

                     28                     29                     30
                      A                      A                      A
 Frequencies --    467.7141               493.2329               518.6549
 Red. masses --      3.5526                 4.7891                 3.3357
 Frc consts  --      0.4579                 0.6864                 0.5287
 IR Inten    --      1.8551                 4.5122                 9.5686

                     31                     32                     33
                      A                      A                      A
 Frequencies --    555.4715               579.2992               587.4940
 Red. masses --      2.6496                 3.2227                 3.9419
 Frc consts  --      0.4817                 0.6372                 0.8016
 IR Inten    --      7.5897                 6.2534                 1.2064

                     34                     35                     36
                      A                      A                      A
 Frequencies --    598.0584               613.5378               637.3423
 Red. masses --      4.3698                 1.7049                 3.2610
 Frc consts  --      0.9209                 0.3781                 0.7805
 IR Inten    --     34.3432                89.6347                36.5820

                     37                     38                     39
                      A                      A                      A
 Frequencies --    648.1797               655.3375               704.9289
 Red. masses --      3.3045                 6.2095                 5.5853
 Frc consts  --      0.8180                 1.5712                 1.6353
 IR Inten    --     31.1263                 2.5943                 0.6807

                     40                     41                     42
                      A                      A                      A
 Frequencies --    742.1051               748.1967               755.9940
 Red. masses --      3.9803                 4.6569                 5.6724
 Frc consts  --      1.2915                 1.5360                 1.9101
 IR Inten    --      2.6353                 4.0976                 2.7337

                     43                     44                     45
                      A                      A                      A
 Frequencies --    795.0942               819.7530               825.8689
 Red. masses --      5.0324                 4.7788                 1.4306
 Frc consts  --      1.8744                 1.8921                 0.5749
 IR Inten    --      3.0437                 8.8100                52.8534

                     46                     47                     48
                      A                      A                      A
 Frequencies --    850.7580               854.1473               859.9369
 Red. masses --      1.6118                 2.4169                 1.8213
 Frc consts  --      0.6873                 1.0389                 0.7935
 IR Inten    --     41.6477                 1.9652                 3.3938

                     49                     50                     51
                      A                      A                      A
 Frequencies --    869.8946               874.7793               941.8419
 Red. masses --      1.9538                 1.7754                 3.1795
 Frc consts  --      0.8711                 0.8005                 1.6617
 IR Inten    --      1.3477                 4.8771                11.3506

                     52                     53                     54
                      A                      A                      A
 Frequencies --    980.4058               984.3824               988.6251
 Red. masses --      2.8054                 2.0032                 1.3338
 Frc consts  --      1.5888                 1.1437                 0.7681
 IR Inten    --      2.0859                 4.6000                 0.8140

                     55                     56                     57
                      A                      A                      A
 Frequencies --    992.6601               995.0013              1017.5230
 Red. masses --      1.2891                 1.5956                 1.4480
 Frc consts  --      0.7484                 0.9307                 0.8833
 IR Inten    --      0.1734                 2.3348                 6.6790

                     58                     59                     60
                      A                      A                      A
 Frequencies --   1034.4816              1043.8244              1076.2128
 Red. masses --      2.0300                 2.2631                 1.5470
 Frc consts  --      1.2799                 1.4528                 1.0557
 IR Inten    --      1.5107                22.0516                 7.1212

                     61                     62                     63
                      A                      A                      A
 Frequencies --   1076.4970              1085.1316              1093.1644
 Red. masses --      1.5040                 2.4095                 1.4175
 Frc consts  --      1.0269                 1.6716                 0.9980
 IR Inten    --      6.8665                 8.8973                 8.2672

                     64                     65                     66
                      A                      A                      A
 Frequencies --   1135.9422              1150.1958              1164.5486
 Red. masses --      1.2208                 1.3790                 1.9092
 Frc consts  --      0.9281                 1.0749                 1.5255
 IR Inten    --      0.1062                 5.8852               100.9340

                     67                     68                     69
                      A                      A                      A
 Frequencies --   1170.2340              1180.9563              1185.7159
 Red. masses --      1.8530                 1.3048                 1.4755
 Frc consts  --      1.4951                 1.0721                 1.2223
 IR Inten    --    122.3527                 6.2252                 7.1426

                     70                     71                     72
                      A                      A                      A
 Frequencies --   1219.6673              1234.2076              1248.2048
 Red. masses --      1.1890                 2.6774                 3.1233
 Frc consts  --      1.0421                 2.4029                 2.8671
 IR Inten    --     28.5538                18.7447                 3.1497

                     73                     74                     75
                      A                      A                      A
 Frequencies --   1256.0684              1290.2558              1295.8609
 Red. masses --      1.6951                 4.9701                 1.6984
 Frc consts  --      1.5757                 4.8750                 1.6803
 IR Inten    --      8.2671                65.1209                 2.3703

                     76                     77                     78
                      A                      A                      A
 Frequencies --   1310.9160              1340.4764              1340.9267
 Red. masses --      1.8401                 2.3274                 1.9174
 Frc consts  --      1.8632                 2.4640                 2.0313
 IR Inten    --      8.3428                 5.8771                11.6293

                     79                     80                     81
                      A                      A                      A
 Frequencies --   1355.3243              1359.0469              1394.1044
 Red. masses --      2.7694                 1.7915                 4.3149
 Frc consts  --      2.9973                 1.9495                 4.9409
 IR Inten    --      1.6034                 2.8837                16.7548

                     82                     83                     84
                      A                      A                      A
 Frequencies --   1413.1290              1438.7901              1440.5067
 Red. masses --      3.3579                 1.2792                 1.2765
 Frc consts  --      3.9507                 1.5602                 1.5607
 IR Inten    --     12.8532                 2.2978                 0.5160

                     85                     86                     87
                      A                      A                      A
 Frequencies --   1445.8966              1452.8031              1455.0453
 Red. masses --      3.0711                 1.4042                 2.3438
 Frc consts  --      3.7829                 1.7462                 2.9237
 IR Inten    --     25.7097                71.3166                26.7707

                     88                     89                     90
                      A                      A                      A
 Frequencies --   1458.0085              1479.2934              1501.4734
 Red. masses --      1.7449                 1.2526                 1.3384
 Frc consts  --      2.1854                 1.6151                 1.7778
 IR Inten    --     66.3088                63.6374                55.6361

                     91                     92                     93
                      A                      A                      A
 Frequencies --   1503.4763              1504.7237              1507.3688
 Red. masses --      1.2913                 1.0769                 1.0412
 Frc consts  --      1.7198                 1.4366                 1.3938
 IR Inten    --     42.5246                19.1266                 3.2221

                     94                     95                     96
                      A                      A                      A
 Frequencies --   1509.7321              1512.0771              1516.1292
 Red. masses --      1.0438                 1.2642                 1.2980
 Frc consts  --      1.4018                 1.7030                 1.7579
 IR Inten    --      8.2448                 5.0524                14.4897

                     97                     98                     99
                      A                      A                      A
 Frequencies --   1525.7529              1531.1562              1560.8482
 Red. masses --      1.0442                 1.0805                 3.0494
 Frc consts  --      1.4322                 1.4925                 4.3771
 IR Inten    --     17.9122                 7.9390               118.5308

                    100                    101                    102
                      A                      A                      A
 Frequencies --   1566.2615              1573.9977              1615.1589
 Red. masses --      1.3194                 3.7485                 5.1078
 Frc consts  --      1.9070                 5.4717                 7.8507
 IR Inten    --     65.7225                50.3917                10.5631

                    103                    104                    105
                      A                      A                      A
 Frequencies --   1622.4208              1662.8722              1674.7900
 Red. masses --      5.5037                 6.6800                 5.8619
 Frc consts  --      8.5356                10.8828                 9.6874
 IR Inten    --      1.9624                27.7749                72.1260

                    106                    107                    108
                      A                      A                      A
 Frequencies --   1716.1340              1734.7005              3064.2492
 Red. masses --      6.2359                 9.0711                 1.0376
 Frc consts  --     10.8206                16.0827                 5.7403
 IR Inten    --     71.4788               467.9073                37.5682

                    109                    110                    111
                      A                      A                      A
 Frequencies --   3068.0281              3071.1331              3072.0542
 Red. masses --      1.0677                 1.0396                 1.0374
 Frc consts  --      5.9214                 5.7772                 5.7682
 IR Inten    --     14.2199                92.1553                36.5137

                    112                    113                    114
                      A                      A                      A
 Frequencies --   3074.1248              3118.5676              3122.0478
 Red. masses --      1.0373                 1.1049                 1.1056
 Frc consts  --      5.7755                 6.3313                 6.3495
 IR Inten    --     24.2627                63.3583                 1.2373

                    115                    116                    117
                      A                      A                      A
 Frequencies --   3127.5663              3133.9486              3134.6879
 Red. masses --      1.1011                 1.1016                 1.0942
 Frc consts  --      6.3457                 6.3749                 6.3347
 IR Inten    --     17.6975                10.8864                 1.2623

                    118                    119                    120
                      A                      A                      A
 Frequencies --   3158.9444              3162.6278              3204.7691
 Red. masses --      1.1018                 1.1025                 1.0884
 Frc consts  --      6.4779                 6.4970                 6.5860
 IR Inten    --     21.5340                14.3449                15.6079

                    121                    122                    123
                      A                      A                      A
 Frequencies --   3207.3406              3211.5025              3215.7137
 Red. masses --      1.0882                 1.0982                 1.0957
 Frc consts  --      6.5954                 6.6734                 6.6754
 IR Inten    --     16.6538                 1.1224                17.0713

                    124                    125                    126
                      A                      A                      A
 Frequencies --   3223.3337              3225.4922              3233.9957
 Red. masses --      1.0940                 1.0950                 1.0907
 Frc consts  --      6.6970                 6.7118                 6.7207
 IR Inten    --     27.2604                 1.4392                 2.3281

                    127                    128                    129
                      A                      A                      A
 Frequencies --   3260.8018              3292.1542              3604.1865
 Red. masses --      1.0949                 1.0932                 1.0817
 Frc consts  --      6.8595                 6.9807                 8.2791
 IR Inten    --      0.1704                 0.7190               382.7003

 - Thermochemistry -
 -------------------
 Temperature   298.150 Kelvin.  Pressure   1.00000 Atm.
 Atom     1 has atomic number  6 and mass  12.00000

 Molecular mass:   308.17629 amu.
 Principal axes and moments of inertia in atomic units:
                           1         2         3
     Eigenvalues --  5493.92482********************
           X            0.99999   0.00345   0.00137
           Y           -0.00346   0.99998   0.00537
           Z           -0.00135  -0.00538   0.99998
 This molecule is an asymmetric top.
 Rotational symmetry number  1.
 Warning -- assumption of classical behavior for rotation
           may cause significant error
 Rotational temperatures (Kelvin)      0.01577     0.00853     0.00586
 Rotational constants (GHZ):           0.32850     0.17771     0.12219
    1 imaginary frequencies ignored.
 Zero-point vibrational energy    1001002.4 (Joules/Mol)
                                  239.24532 (Kcal/Mol)
 Warning -- explicit consideration of  34 degrees of freedom as
           vibrations may cause significant error
 Vibrational temperatures:     29.90    41.45    60.41    76.87    92.58
          (Kelvin)             96.79   117.20   152.16   156.25   189.38
                              207.38   237.14   278.81   325.05   334.45
                              340.88   350.68   375.93   443.01   474.79
                              511.26   535.68   560.44   589.07   611.49
                              647.33   672.94   709.65   746.23   799.20
                              833.48   845.27   860.47   882.74   916.99
                              932.59   942.88  1014.24  1067.72  1076.49
                             1087.71  1143.96  1179.44  1188.24  1224.05
                             1228.93  1237.26  1251.58  1258.61  1355.10
                             1410.59  1416.31  1422.41  1428.22  1431.58
                             1463.99  1488.39  1501.83  1548.43  1548.84
                             1561.26  1572.82  1634.37  1654.88  1675.53
                             1683.71  1699.13  1705.98  1754.83  1775.75
                             1795.89  1807.20  1856.39  1864.45  1886.12
                             1928.65  1929.29  1950.01  1955.37  2005.81
                             2033.18  2070.10  2072.57  2080.32  2090.26
                             2093.49  2097.75  2128.37  2160.29  2163.17
                             2164.96  2168.77  2172.17  2175.54  2181.37
                             2195.22  2202.99  2245.71  2253.50  2264.63
                             2323.85  2334.30  2392.50  2409.65  2469.13
                             2495.85  4408.77  4414.21  4418.68  4420.00
                             4422.98  4486.92  4491.93  4499.87  4509.05
                             4510.12  4545.02  4550.32  4610.95  4614.65
                             4620.64  4626.69  4637.66  4640.76  4653.00
                             4691.57  4736.68  5185.62

 Zero-point correction=                           0.381262 (Hartree/Particle)
 Thermal correction to Energy=                    0.402724
 Thermal correction to Enthalpy=                  0.403668
 Thermal correction to Gibbs Free Energy=         0.328908
 Sum of electronic and zero-point Energies=           -976.286145
 Sum of electronic and thermal Energies=              -976.264682
 Sum of electronic and thermal Enthalpies=            -976.263738
 Sum of electronic and thermal Free Energies=         -976.338498

                     E (Thermal)             CV                S
                      KCal/Mol        Cal/Mol-Kelvin    Cal/Mol-Kelvin
 Total                  252.713             81.373            157.345
 Electronic               0.000              0.000              0.000
 Translational            0.889              2.981             43.073
 Rotational               0.889              2.981             35.065
 Vibrational            250.936             75.412             79.208
 Vibration     1          0.593              1.986              6.558
 Vibration     2          0.593              1.984              5.910
 Vibration     3          0.595              1.980              5.163
 Vibration     4          0.596              1.976              4.686
 Vibration     5          0.597              1.971              4.319
 Vibration     6          0.598              1.970              4.232
 Vibration     7          0.600              1.962              3.855
 Vibration     8          0.605              1.945              3.345
 Vibration     9          0.606              1.942              3.294
 Vibration    10          0.612              1.922              2.922
 Vibration    11          0.616              1.909              2.748
 Vibration    12          0.623              1.886              2.494
 Vibration    13          0.635              1.849              2.191
 Vibration    14          0.650              1.802              1.911
 Vibration    15          0.653              1.791              1.860
 Vibration    16          0.656              1.784              1.826
 Vibration    17          0.659              1.773              1.775
 Vibration    18          0.669              1.744              1.653
 Vibration    19          0.698              1.659              1.374
 Vibration    20          0.713              1.616              1.260
 Vibration    21          0.731              1.564              1.142
 Vibration    22          0.744              1.529              1.070
 Vibration    23          0.757              1.493              1.002
 Vibration    24          0.774              1.450              0.929
 Vibration    25          0.787              1.416              0.875
 Vibration    26          0.809              1.361              0.796
 Vibration    27          0.825              1.322              0.744
 Vibration    28          0.849              1.265              0.675
 Vibration    29          0.874              1.209              0.613
 Vibration    30          0.911              1.128              0.533
 Vibration    31          0.936              1.076              0.487
 Vibration    32          0.945              1.058              0.472
 Vibration    33          0.956              1.036              0.453
 Vibration    34          0.973              1.003              0.427

 Optimization completed.
    -- Stationary point found.
 Normal termination of Gaussian 16 at Sun Jul 18 20:03:09 2021.

 ----------------------------------------------------------------------
 #p b3lyp/6-31G(d) scrf=(iefpcm,read,solvent=n-octanol) geom=allcheck g
 uess=read
 ----------------------------------------------------------------------

 Structure from the checkpoint file:  "SET_328_BBB268_conf1.geo_180_090_255.chk"
 ---------------------------------------------
 SET_328_BBB268_conf1.geo_180_090_255 geometry
 ---------------------------------------------
 Charge =  1 Multiplicity = 1

 SCF Done:  E(RB3LYP) =  -976.667406218     A.U. after    1 cycles
 Normal termination of Gaussian 16 at Sun Jul 18 20:05:00 2021.

 -----------------------------
 #p B3LYP/6-31G* geom=allcheck
 -----------------------------

 Structure from the checkpoint file:  "SET_328_BBB268_conf1.geo_180_090_255.chk"
 ---------------------------------------------
 SET_328_BBB268_conf1.geo_180_090_255 geometry
 ---------------------------------------------
 Charge =  1 Multiplicity = 1

 SCF Done:  E(RB3LYP) =  -976.589583143     A.U. after   15 cycles
 Normal termination of Gaussian 16 at Sun Jul 18 20:08:59 2021.
 Gaussian 16:  ES64L-G16RevA.03 25-Dec-2016

 --------------------------------------------------------
 #p mp2/aug-cc-pVDZ scf=tight maxdisk=180GB geom=allcheck
 --------------------------------------------------------

 Structure from the checkpoint file:  "SET_328_BBB268_conf1.geo_180_090_255.chk"
 ---------------------------------------------
 SET_328_BBB268_conf1.geo_180_090_255 geometry
 ---------------------------------------------
 Charge =  1 Multiplicity = 1

                         Standard orientation:
 ---------------------------------------------------------------------
 Center     Atomic      Atomic             Coordinates (Angstroms)
 Number     Number       Type             X           Y           Z
 ---------------------------------------------------------------------
      1          6           0        1.062382    4.522075   -0.909944
      2          1           0        1.389692    4.010754   -1.811963
      3          1           0        1.871074    5.152822   -0.526815
      4          1           0        0.202391    5.159401   -1.138148
      5          7           0        0.696215    3.518362    0.081188
      6          6           0        0.226060    4.036377    1.358548
      7          1           0       -0.686002    4.624817    1.217459
      8          1           0        0.988323    4.684726    1.800897
      9          1           0        0.014256    3.229459    2.054894
     10          6           0        0.786263    2.203318   -0.246270
     11          8           0        1.178706    1.804169   -1.344368
     12          6           0        0.383628    1.178227    0.833866
     13          1           0       -0.639041    1.360144    1.172452
     14          1           0        1.021316    1.299064    1.718192
     15          6           0        0.466032   -0.220971    0.332693
     16          6           0       -0.524324   -1.124117    0.030493
     17          6           0       -1.979326   -0.953686    0.009401
     18          6           0       -2.548806    0.177925   -0.591575
     19          6           0       -3.932248    0.340697   -0.610471
     20          6           0       -4.782651   -0.614692   -0.042788
     21          6           0       -6.277402   -0.432469   -0.069722
     22          1           0       -6.549369    0.490158   -0.585421
     23          1           0       -6.689551   -0.388881    0.942976
     24          1           0       -6.769977   -1.265363   -0.580552
     25          6           0       -4.204678   -1.747125    0.549962
     26          6           0       -2.826183   -1.918249    0.579120
     27          1           0       -2.404327   -2.789547    1.066062
     28          1           0       -4.843209   -2.500300    1.000775
     29          1           0       -4.362397    1.217163   -1.084383
     30          1           0       -1.909807    0.910351   -1.072788
     31          7           0        0.087421   -2.327672   -0.277872
     32          6           0        1.429362   -2.196849   -0.197573
     33          6           0        2.483911   -3.091942   -0.419575
     34          1           0        2.271954   -4.111508   -0.713777
     35          6           0        3.767242   -2.624248   -0.249646
     36          1           0        4.603208   -3.294115   -0.415106
     37          6           0        4.026963   -1.277385    0.134036
     38          6           0        5.437170   -0.778131    0.308258
     39          1           0        5.450021    0.276390    0.589161
     40          1           0        6.007605   -0.890852   -0.617769
     41          1           0        5.959223   -1.345042    1.085392
     42          6           0        2.961980   -0.437536    0.334581
     43          1           0        3.063868    0.602112    0.606122
     44          7           0        1.678962   -0.897851    0.176013
     45          1           0       -0.389342   -3.162293   -0.608383
 ---------------------------------------------------------------------

 SCF Done:  E(RHF) =  -970.474048383     A.U. after   17 cycles
 E2 =    -0.3331987245D+01 EUMP2 =    -0.97380603562831D+03

 The electronic state is 1-A.
 Alpha  occ. eigenvalues --  -20.63391 -15.81292 -15.77991 -15.70039 -11.49368
 Alpha  occ. eigenvalues --  -11.47009 -11.43619 -11.43395 -11.42008 -11.40748
 Alpha  occ. eigenvalues --  -11.39899 -11.39358 -11.38686 -11.37320 -11.36850
 Alpha  occ. eigenvalues --  -11.35814 -11.35605 -11.35510 -11.35141 -11.35095
 Alpha  occ. eigenvalues --  -11.34240 -11.34121 -11.31831  -1.53886  -1.48819
 Alpha  occ. eigenvalues --   -1.40390  -1.35210  -1.28723  -1.27082  -1.21723
 Alpha  occ. eigenvalues --   -1.19098  -1.16386  -1.12717  -1.12474  -1.09198
 Alpha  occ. eigenvalues --   -1.07245  -1.04780  -1.03724  -1.00415  -0.99703
 Alpha  occ. eigenvalues --   -0.95863  -0.94019  -0.90518  -0.89088  -0.85376
 Alpha  occ. eigenvalues --   -0.83736  -0.81527  -0.81203  -0.80681  -0.78753
 Alpha  occ. eigenvalues --   -0.78414  -0.76636  -0.75956  -0.75771  -0.74520
 Alpha  occ. eigenvalues --   -0.74346  -0.70775  -0.70447  -0.69658  -0.69307
 Alpha  occ. eigenvalues --   -0.68435  -0.68312  -0.67705  -0.66543  -0.66206
 Alpha  occ. eigenvalues --   -0.65908  -0.65391  -0.64791  -0.64684  -0.63128
 Alpha  occ. eigenvalues --   -0.62730  -0.61649  -0.60215  -0.60009  -0.59271
 Alpha  occ. eigenvalues --   -0.57383  -0.53201  -0.48412  -0.47472  -0.45569
 Alpha  occ. eigenvalues --   -0.44538  -0.41577
 Alpha virt. eigenvalues --   -0.06408  -0.05862  -0.05111  -0.04314  -0.03705
 Alpha virt. eigenvalues --   -0.03348  -0.02981  -0.02430  -0.02349  -0.02304
 Alpha virt. eigenvalues --   -0.01715  -0.01524  -0.00951  -0.00682  -0.00644

 Mulliken charges:
               1
     1  C    0.791904
     2  H   -0.239743
     3  H   -0.081293
     4  H   -0.066245
     5  N   -0.438498
     6  C    0.863804
     7  H   -0.073530
     8  H   -0.083515
     9  H   -0.294059
    10  C    0.520683
    11  O   -0.897332
    12  C   -0.456835
    13  H   -0.055246
    14  H   -0.004541
    15  C    1.627058
    16  C   -0.806310
    17  C    2.156839
    18  C    0.360178
    19  C   -0.104919
    20  C    0.038294
    21  C    0.808302
    22  H   -0.192262
    23  H    0.125715
    24  H    0.110998
    25  C    0.237514
    26  C    0.440326
    27  H   -0.731745
    28  H   -0.623118
    29  H   -0.638024
    30  H   -0.690522
    31  N   -0.853290
    32  C   -0.392396
    33  C    1.499029
    34  H   -0.497632
    35  C    0.191327
    36  H   -0.610620
    37  C   -0.164319
    38  C    0.494930
    39  H   -0.153449
    40  H    0.118571
    41  H    0.108017
    42  C    1.596919
    43  H   -0.697087
    44  N   -1.122840
    45  H   -0.121038
 Sum of Mulliken charges =   1.00000

 Dipole moment (field-independent basis, Debye):
    X=              2.9811    Y=             -3.1580    Z=              2.8487  Tot=              5.1938
 Quadrupole moment (field-independent basis, Debye-Ang):
   XX=            -70.7402   YY=            -83.1900   ZZ=           -138.2880
   XY=             -8.7244   XZ=              3.5164   YZ=              8.2692

 Normal termination of Gaussian 16 at Sun Jul 18 23:17:10 2021.
