 Gaussian 16, Revision A.03,

 ---------------------------------------------------------------
 #p b3lyp/6-31G(d) opt freq scrf=(iefpcm,read,solvent=n-octanol)
 ---------------------------------------------------------------

 ---------------------------------------------
 SET_328_BBB321_conf1.geo_330_345_315 geometry
 ---------------------------------------------
 Symbolic Z-matrix:
 Charge =  1 Multiplicity = 1

 SCF Done:  E(RB3LYP) =  -1212.39143934     A.U. after   20 cycles
 SCF Done:  E(RB3LYP) =  -1212.53177462     A.U. after   16 cycles
 SCF Done:  E(RB3LYP) =  -1212.63196656     A.U. after   16 cycles
 SCF Done:  E(RB3LYP) =  -1212.68345913     A.U. after   13 cycles
 SCF Done:  E(RB3LYP) =  -1212.74291496     A.U. after   14 cycles
 SCF Done:  E(RB3LYP) =  -1212.76593179     A.U. after   12 cycles
 SCF Done:  E(RB3LYP) =  -1212.79013478     A.U. after   13 cycles
 SCF Done:  E(RB3LYP) =  -1212.80120061     A.U. after   14 cycles
 SCF Done:  E(RB3LYP) =  -1212.80734271     A.U. after   13 cycles
 SCF Done:  E(RB3LYP) =  -1212.80467880     A.U. after   15 cycles
 SCF Done:  E(RB3LYP) =  -1212.81438701     A.U. after    8 cycles
 SCF Done:  E(RB3LYP) =  -1212.81438231     A.U. after    8 cycles
 SCF Done:  E(RB3LYP) =  -1212.81438411     A.U. after    7 cycles
 SCF Done:  E(RB3LYP) =  -1212.81438429     A.U. after    7 cycles
 SCF Done:  E(RB3LYP) =  -1212.81438429     A.U. after    7 cycles
 SCF Done:  E(RB3LYP) =  -1212.81438422     A.U. after    6 cycles
 Optimization completed.
    -- Stationary point found.
 Normal termination of Gaussian 16 at Sun Jul 18 18:55:56 2021.

 --------------------------------------------------------------------
 #P Geom=AllCheck Guess=TCheck SCRF=Check GenChk RB3LYP/6-31G(d) Freq
 --------------------------------------------------------------------

 Structure from the checkpoint file:  "SET_328_BBB321_conf1.geo_330_345_315.chk"
 ---------------------------------------------
 SET_328_BBB321_conf1.geo_330_345_315 geometry
 ---------------------------------------------
 Charge =  1 Multiplicity = 1

 SCF Done:  E(RB3LYP) =  -1212.81438422     A.U. after    1 cycles

  Exact polarizability: 336.536  11.076 271.086  -4.956   9.749  94.683
 Approx polarizability: 386.963   3.262 348.680  -6.918  11.942 123.860

                      1                      2                      3
                      A                      A                      A
 Frequencies --     36.2510                54.7105                60.1272
 Red. masses --      6.8225                 5.2886                 5.5118
 Frc consts  --      0.0053                 0.0093                 0.0117
 IR Inten    --      5.3183                17.1937                15.7153

                      4                      5                      6
                      A                      A                      A
 Frequencies --     67.6308                73.3742                95.7344
 Red. masses --      4.3537                 1.4686                 3.0449
 Frc consts  --      0.0117                 0.0047                 0.0164
 IR Inten    --      6.8722                 0.9192                 2.5102

                      7                      8                      9
                      A                      A                      A
 Frequencies --    110.5552               114.3374               145.5288
 Red. masses --      2.9700                 4.3534                 5.9867
 Frc consts  --      0.0214                 0.0335                 0.0747
 IR Inten    --      0.9790                 0.8608                 2.3126

                     10                     11                     12
                      A                      A                      A
 Frequencies --    193.9355               244.1661               263.2919
 Red. masses --      5.7999                 5.3007                 4.5983
 Frc consts  --      0.1285                 0.1862                 0.1878
 IR Inten    --      1.7328                 5.8451                 2.8161

                     13                     14                     15
                      A                      A                      A
 Frequencies --    276.9966               279.5280               293.7347
 Red. masses --      6.1804                 5.5732                 5.3754
 Frc consts  --      0.2794                 0.2566                 0.2733
 IR Inten    --      3.0950                 3.8597                 8.1993

                     16                     17                     18
                      A                      A                      A
 Frequencies --    345.7093               346.7378               372.1897
 Red. masses --      3.0332                 1.4045                 4.9519
 Frc consts  --      0.2136                 0.0995                 0.4042
 IR Inten    --     50.5182               295.8250                 1.2989

                     19                     20                     21
                      A                      A                      A
 Frequencies --    400.3985               447.4201               459.1908
 Red. masses --      5.4498                 1.5246                 2.2324
 Frc consts  --      0.5148                 0.1798                 0.2773
 IR Inten    --      0.1986                45.2655                23.4220

                     22                     23                     24
                      A                      A                      A
 Frequencies --    483.8295               538.0991               541.5201
 Red. masses --      3.8404                 4.0438                 2.0118
 Frc consts  --      0.5297                 0.6899                 0.3476
 IR Inten    --      3.4014                24.7519               137.2247

                     25                     26                     27
                      A                      A                      A
 Frequencies --    555.9523               559.8227               567.5674
 Red. masses --      1.3968                 1.8064                 1.9489
 Frc consts  --      0.2544                 0.3335                 0.3699
 IR Inten    --     14.6649               163.8033                75.5736

                     28                     29                     30
                      A                      A                      A
 Frequencies --    574.4332               598.5353               627.0759
 Red. masses --      1.9668                 3.2156                 1.1474
 Frc consts  --      0.3824                 0.6787                 0.2658
 IR Inten    --    178.3829                 4.5020                52.5683

                     31                     32                     33
                      A                      A                      A
 Frequencies --    643.4244               651.7124               666.8547
 Red. masses --      1.7482                 5.8862                 4.4748
 Frc consts  --      0.4264                 1.4730                 1.1724
 IR Inten    --     21.8605                 9.3940                40.0739

                     34                     35                     36
                      A                      A                      A
 Frequencies --    677.1780               699.9077               700.7259
 Red. masses --      5.6260                 3.5034                 2.9121
 Frc consts  --      1.5200                 1.0112                 0.8425
 IR Inten    --      7.8331                48.6066                 5.8767

                     37                     38                     39
                      A                      A                      A
 Frequencies --    708.4863               751.2145               757.7611
 Red. masses --      2.2121                 2.8961                 2.8887
 Frc consts  --      0.6542                 0.9629                 0.9773
 IR Inten    --      5.1341                38.5307                41.1735

                     40                     41                     42
                      A                      A                      A
 Frequencies --    806.8959               835.4876               892.6454
 Red. masses --      1.8661                 6.9304                 2.8594
 Frc consts  --      0.7158                 2.8503                 1.3424
 IR Inten    --     29.6103                35.6559                 2.8972

                     43                     44                     45
                      A                      A                      A
 Frequencies --    897.5830               964.8523               967.3430
 Red. masses --      1.7766                 4.5086                 1.3832
 Frc consts  --      0.8433                 2.4729                 0.7626
 IR Inten    --      1.9408                 4.4437                18.0571

                     46                     47                     48
                      A                      A                      A
 Frequencies --    974.5361               976.3204              1015.2502
 Red. masses --      1.2725                 4.4296                 6.0594
 Frc consts  --      0.7121                 2.4877                 3.6798
 IR Inten    --      1.0904                 3.6291                 1.4948

                     49                     50                     51
                      A                      A                      A
 Frequencies --   1034.6681              1048.4107              1068.3303
 Red. masses --      1.8876                 2.7957                 1.6745
 Frc consts  --      1.1906                 1.8105                 1.1260
 IR Inten    --     25.6099                 1.2451                12.7134

                     52                     53                     54
                      A                      A                      A
 Frequencies --   1074.3021              1102.2833              1129.0140
 Red. masses --      1.3955                 1.8486                 1.5440
 Frc consts  --      0.9489                 1.3234                 1.1596
 IR Inten    --      3.9850                31.6853                14.1632

                     55                     56                     57
                      A                      A                      A
 Frequencies --   1135.7614              1203.7265              1208.7192
 Red. masses --      1.7115                 1.2700                 1.4744
 Frc consts  --      1.3008                 1.0842                 1.2692
 IR Inten    --      5.5364                 2.8400                23.2207

                     58                     59                     60
                      A                      A                      A
 Frequencies --   1269.3498              1296.8473              1300.9777
 Red. masses --      2.4866                 2.1080                 4.7723
 Frc consts  --      2.3606                 2.0888                 4.7590
 IR Inten    --     82.9521               158.5895               277.8193

                     61                     62                     63
                      A                      A                      A
 Frequencies --   1313.5937              1366.7048              1379.8285
 Red. masses --      2.1371                 2.8430                 5.8496
 Frc consts  --      2.1727                 3.1288                 6.5619
 IR Inten    --      7.6605                18.7957                74.7852

                     64                     65                     66
                      A                      A                      A
 Frequencies --   1428.9377              1435.2310              1459.9432
 Red. masses --      1.2443                 1.5956                 3.3657
 Frc consts  --      1.4970                 1.9365                 4.2267
 IR Inten    --     33.9009               114.5717               241.7768

                     67                     68                     69
                      A                      A                      A
 Frequencies --   1498.4991              1515.3329              1531.7671
 Red. masses --      1.0492                 1.0969                 2.4278
 Frc consts  --      1.3882                 1.4839                 3.3562
 IR Inten    --      9.2912                18.1389                40.2393

                     70                     71                     72
                      A                      A                      A
 Frequencies --   1554.4728              1571.4541              1584.7983
 Red. masses --      4.0017                 2.3805                 2.3749
 Frc consts  --      5.6972                 3.4635                 3.5144
 IR Inten    --    208.5782               174.5789                88.8143

                     73                     74                     75
                      A                      A                      A
 Frequencies --   1596.4915              1613.4855              1650.5342
 Red. masses --      2.2415                 2.1247                 2.0132
 Frc consts  --      3.3661                 3.2589                 3.2313
 IR Inten    --    259.8957               448.6252               473.2964

                     76                     77                     78
                      A                      A                      A
 Frequencies --   1651.5458              1666.9965              1706.2537
 Red. masses --      3.1442                 4.6649                 3.1559
 Frc consts  --      5.0528                 7.6378                 5.4132
 IR Inten    --    504.2974                19.2684               935.3270

                     79                     80                     81
                      A                      A                      A
 Frequencies --   1767.4577              3086.8293              3156.2118
 Red. masses --      7.4748                 1.0361                 1.1007
 Frc consts  --     13.7579                 5.8165                 6.4603
 IR Inten    --    278.5316                 8.6059                 9.6379

                     82                     83                     84
                      A                      A                      A
 Frequencies --   3172.3251              3203.9657              3214.6491
 Red. masses --      1.1045                 1.0871                 1.0896
 Frc consts  --      6.5487                 6.5750                 6.6342
 IR Inten    --     20.1104                 7.6797                25.5246

                     85                     86                     87
                      A                      A                      A
 Frequencies --   3229.7143              3291.4644              3310.3801
 Red. masses --      1.0963                 1.0901                 1.0940
 Frc consts  --      6.7376                 6.9584                 7.0639
 IR Inten    --     30.1145                12.1367                 4.3461

                     88                     89                     90
                      A                      A                      A
 Frequencies --   3539.5682              3550.6437              3563.1888
 Red. masses --      1.0763                 1.0461                 1.0517
 Frc consts  --      7.9448                 7.7705                 7.8670
 IR Inten    --    208.7955               345.2588               277.3387

                     91                     92                     93
                      A                      A                      A
 Frequencies --   3601.7578              3655.9071              3668.1263
 Red. masses --      1.0775                 1.1039                 1.1084
 Frc consts  --      8.2354                 8.6929                 8.7871
 IR Inten    --     63.7245               198.0446               231.7750

 - Thermochemistry -
 -------------------
 Temperature   298.150 Kelvin.  Pressure   1.00000 Atm.
 Atom     1 has atomic number  6 and mass  12.00000

 Molecular mass:   276.09191 amu.
 Principal axes and moments of inertia in atomic units:
                           1         2         3
     Eigenvalues --  3232.87337********************
           X            1.00000   0.00301  -0.00061
           Y           -0.00301   0.99999   0.00294
           Z            0.00061  -0.00294   1.00000
 This molecule is an asymmetric top.
 Rotational symmetry number  1.
 Warning -- assumption of classical behavior for rotation
           may cause significant error
 Rotational temperatures (Kelvin)      0.02679     0.00793     0.00619
 Rotational constants (GHZ):           0.55825     0.16520     0.12902
 Zero-point vibrational energy     686219.9 (Joules/Mol)
                                  164.01050 (Kcal/Mol)
 Warning -- explicit consideration of  29 degrees of freedom as
           vibrations may cause significant error
 Vibrational temperatures:     52.16    78.72    86.51    97.31   105.57
          (Kelvin)            137.74   159.06   164.51   209.38   279.03
                              351.30   378.82   398.54   402.18   422.62
                              497.40   498.88   535.50   576.08   643.74
                              660.67   696.12   774.20   779.13   799.89
                              805.46   816.60   826.48   861.16   902.22
                              925.74   937.67   959.46   974.31  1007.01
                             1008.19  1019.35  1080.83  1090.25  1160.94
                             1202.08  1284.32  1291.42  1388.21  1391.79
                             1402.14  1404.71  1460.72  1488.66  1508.43
                             1537.09  1545.68  1585.94  1624.40  1634.11
                             1731.89  1739.08  1826.31  1865.87  1871.82
                             1889.97  1966.38  1985.27  2055.92  2064.98
                             2100.53  2156.01  2180.23  2203.87  2236.54
                             2260.97  2280.17  2297.00  2321.45  2374.75
                             2376.21  2398.44  2454.92  2542.98  4441.26
                             4541.08  4564.27  4609.79  4625.16  4646.84
                             4735.68  4762.90  5092.65  5108.58  5126.63
                             5182.13  5260.03  5277.62

 Zero-point correction=                           0.261367 (Hartree/Particle)
 Thermal correction to Energy=                    0.279357
 Thermal correction to Enthalpy=                  0.280301
 Thermal correction to Gibbs Free Energy=         0.214460
 Sum of electronic and zero-point Energies=          -1212.553017
 Sum of electronic and thermal Energies=             -1212.535027
 Sum of electronic and thermal Enthalpies=           -1212.534083
 Sum of electronic and thermal Free Energies=        -1212.599924

                     E (Thermal)             CV                S
                      KCal/Mol        Cal/Mol-Kelvin    Cal/Mol-Kelvin
 Total                  175.299             69.037            138.575
 Electronic               0.000              0.000              0.000
 Translational            0.889              2.981             42.745
 Rotational               0.889              2.981             34.556
 Vibrational            173.522             63.075             61.273
 Vibration     1          0.594              1.982              5.454
 Vibration     2          0.596              1.976              4.639
 Vibration     3          0.597              1.973              4.453
 Vibration     4          0.598              1.970              4.221
 Vibration     5          0.599              1.967              4.061
 Vibration     6          0.603              1.952              3.539
 Vibration     7          0.606              1.941              3.259
 Vibration     8          0.607              1.938              3.194
 Vibration     9          0.617              1.908              2.730
 Vibration    10          0.635              1.848              2.190
 Vibration    11          0.659              1.772              1.772
 Vibration    12          0.670              1.740              1.640
 Vibration    13          0.678              1.716              1.552
 Vibration    14          0.680              1.711              1.537
 Vibration    15          0.689              1.685              1.452
 Vibration    16          0.724              1.584              1.186
 Vibration    17          0.725              1.582              1.181
 Vibration    18          0.744              1.529              1.071
 Vibration    19          0.766              1.469              0.961
 Vibration    20          0.807              1.367              0.804
 Vibration    21          0.817              1.341              0.768
 Vibration    22          0.840              1.286              0.700
 Vibration    23          0.893              1.166              0.569
 Vibration    24          0.897              1.158              0.562
 Vibration    25          0.911              1.127              0.532
 Vibration    26          0.915              1.118              0.524
 Vibration    27          0.924              1.101              0.509
 Vibration    28          0.931              1.087              0.496
 Vibration    29          0.957              1.035              0.452

                           ! Non-Optimized Parameters !
 Normal termination of Gaussian 16 at Sun Jul 18 19:27:23 2021.

 ----------------------------------------------------------------------
 #p b3lyp/6-31G(d) scrf=(iefpcm,read,solvent=n-octanol) geom=allcheck g
 uess=read
 ----------------------------------------------------------------------

 Structure from the checkpoint file:  "SET_328_BBB321_conf1.geo_330_345_315.chk"
 ---------------------------------------------
 SET_328_BBB321_conf1.geo_330_345_315 geometry
 ---------------------------------------------
 Charge =  1 Multiplicity = 1

 SCF Done:  E(RB3LYP) =  -1212.81438422     A.U. after    1 cycles
 Normal termination of Gaussian 16 at Sun Jul 18 19:28:08 2021.

 -----------------------------
 #p B3LYP/6-31G* geom=allcheck
 -----------------------------

 Structure from the checkpoint file:  "SET_328_BBB321_conf1.geo_330_345_315.chk"
 ---------------------------------------------
 SET_328_BBB321_conf1.geo_330_345_315 geometry
 ---------------------------------------------
 Charge =  1 Multiplicity = 1

 SCF Done:  E(RB3LYP) =  -1212.68547877     A.U. after   17 cycles
 Normal termination of Gaussian 16 at Sun Jul 18 19:30:30 2021.
 Gaussian 16:  ES64L-G16RevA.03 25-Dec-2016

 --------------------------------------------------------
 #p mp2/aug-cc-pVDZ scf=tight maxdisk=180GB geom=allcheck
 --------------------------------------------------------

 Structure from the checkpoint file:  "SET_328_BBB321_conf1.geo_330_345_315.chk"
 ---------------------------------------------
 SET_328_BBB321_conf1.geo_330_345_315 geometry
 ---------------------------------------------
 Charge =  1 Multiplicity = 1

                         Standard orientation:
 ---------------------------------------------------------------------
 Center     Atomic      Atomic             Coordinates (Angstroms)
 Number     Number       Type             X           Y           Z
 ---------------------------------------------------------------------
      1          6           0        5.067986   -2.928389    0.154433
      2          1           0        4.978233   -3.704934   -0.608032
      3          1           0        5.095200   -3.426734    1.127369
      4          1           0        6.008446   -2.393714    0.009045
      5          6           0        3.837794   -2.039700    0.092414
      6          8           0        2.704466   -2.510035    0.109706
      7          7           0        4.111350   -0.694253    0.029024
      8          1           0        5.091543   -0.439389    0.022022
      9          6           0        3.218635    0.394025   -0.014278
     10          6           0        3.778849    1.678368   -0.060924
     11          6           0        2.955652    2.798606   -0.105637
     12          6           0        1.571612    2.659034   -0.104049
     13          1           0        0.937554    3.537468   -0.147625
     14          1           0        3.400590    3.786657   -0.145063
     15          1           0        4.857655    1.796968   -0.063537
     16          6           0        1.826046    0.245947   -0.012407
     17          1           0        1.389381   -0.740364    0.022650
     18          6           0        1.001620    1.378803   -0.055156
     19          6           0       -0.462677    1.207697   -0.048630
     20          7           0       -1.001510   -0.068077   -0.100976
     21          6           0       -1.390832    2.212193    0.020440
     22          1           0       -1.229249    3.274117    0.111181
     23         16           0       -3.003561    1.575059    0.002155
     24          6           0       -2.297167   -0.036042   -0.077677
     25          7           0       -3.032866   -1.209586   -0.242312
     26          6           0       -4.345977   -1.424630    0.021483
     27          7           0       -4.947049   -2.446537   -0.568815
     28          1           0       -4.497973   -2.951782   -1.325561
     29          1           0       -5.886770   -2.714379   -0.297073
     30          7           0       -5.018988   -0.597965    0.828280
     31          1           0       -4.542083   -0.152143    1.605027
     32          1           0       -6.010104   -0.774219    0.966673
     33          1           0       -2.516978   -1.978755   -0.665692
 ---------------------------------------------------------------------

 SCF Done:  E(RHF) =  -1207.14771177     A.U. after   18 cycles
 E2 =    -0.2816585809D+01 EUMP2 =    -0.12099642975743D+04

 The electronic state is 1-A.
 Alpha  occ. eigenvalues --  -92.12823 -20.60632 -15.80748 -15.80698 -15.79910
 Alpha  occ. eigenvalues --  -15.70638 -15.68709 -11.61222 -11.49773 -11.44127
 Alpha  occ. eigenvalues --  -11.40076 -11.38173 -11.37473 -11.34307 -11.32678
 Alpha  occ. eigenvalues --  -11.32381 -11.32284 -11.31615 -11.31371  -9.12980
 Alpha  occ. eigenvalues --   -6.81140  -6.81039  -6.80847  -1.55237  -1.45943
 Alpha  occ. eigenvalues --   -1.44952  -1.39969  -1.38121  -1.33490  -1.23730
 Alpha  occ. eigenvalues --   -1.19416  -1.16098  -1.11056  -1.09945  -1.06365
 Alpha  occ. eigenvalues --   -1.05177  -0.99206  -0.98084  -0.94308  -0.93810
 Alpha  occ. eigenvalues --   -0.90546  -0.88815  -0.87326  -0.86010  -0.84794
 Alpha  occ. eigenvalues --   -0.81936  -0.80240  -0.79073  -0.76043  -0.75008
 Alpha  occ. eigenvalues --   -0.72326  -0.71491  -0.69939  -0.69247  -0.68821
 Alpha  occ. eigenvalues --   -0.67491  -0.66068  -0.64160  -0.63260  -0.63059
 Alpha  occ. eigenvalues --   -0.62130  -0.61831  -0.59908  -0.58912  -0.57702
 Alpha  occ. eigenvalues --   -0.56275  -0.52679  -0.51246  -0.49577  -0.46678
 Alpha  occ. eigenvalues --   -0.40334  -0.38224
 Alpha virt. eigenvalues --   -0.09048  -0.06632  -0.05915  -0.05308  -0.04001
 Alpha virt. eigenvalues --   -0.03490  -0.02847  -0.02451  -0.01895  -0.01498
 Alpha virt. eigenvalues --   -0.00880  -0.00609  -0.00259   0.00353   0.00511

 Mulliken charges:
               1
     1  C    0.590361
     2  H    0.035489
     3  H    0.056504
     4  H   -0.188255
     5  C    0.362104
     6  O   -0.878267
     7  N   -0.626592
     8  H   -0.045227
     9  C   -0.086887
    10  C    1.216456
    11  C   -0.006351
    12  C    0.466130
    13  H   -0.646076
    14  H   -0.499943
    15  H   -0.728278
    16  C    0.711487
    17  H   -0.761190
    18  C    2.091649
    19  C   -0.502885
    20  N   -0.637776
    21  C    0.623044
    22  H   -0.614546
    23  S    0.444613
    24  C    0.413496
    25  N   -0.679838
    26  C    1.164935
    27  N   -0.241867
    28  H    0.028274
    29  H    0.030775
    30  N   -0.142443
    31  H    0.068443
    32  H    0.037145
    33  H   -0.054484
 Sum of Mulliken charges =   1.00000

 Dipole moment (field-independent basis, Debye):
    X=            -15.0147    Y=             -4.0767    Z=              0.2165  Tot=             15.5598
 Quadrupole moment (field-independent basis, Debye-Ang):
   XX=             28.7623   YY=            -87.6605   ZZ=           -116.3739
   XY=             33.1612   XZ=             -3.7837   YZ=              6.0842

 Normal termination of Gaussian 16 at Sun Jul 18 20:29:46 2021.
