 Gaussian 16, Revision A.03,

 ---------------------------------------------------------------
 #p b3lyp/6-31G(d) opt freq scrf=(iefpcm,read,solvent=n-octanol)
 ---------------------------------------------------------------

 ---------------------------------------------
 SET_328_BBB288_conf1.geo_210_105_285 geometry
 ---------------------------------------------
 Symbolic Z-matrix:
 Charge = -1 Multiplicity = 1

 SCF Done:  E(RB3LYP) =  -962.940485760     A.U. after   15 cycles
 SCF Done:  E(RB3LYP) =  -962.984556593     A.U. after   13 cycles
 SCF Done:  E(RB3LYP) =  -963.004573238     A.U. after   13 cycles
 SCF Done:  E(RB3LYP) =  -963.006430422     A.U. after   12 cycles
 SCF Done:  E(RB3LYP) =  -963.007038453     A.U. after   11 cycles
 SCF Done:  E(RB3LYP) =  -963.007566555     A.U. after   11 cycles
 SCF Done:  E(RB3LYP) =  -963.008214170     A.U. after   11 cycles
 SCF Done:  E(RB3LYP) =  -963.009089725     A.U. after   12 cycles
 SCF Done:  E(RB3LYP) =  -963.009447409     A.U. after   11 cycles
 SCF Done:  E(RB3LYP) =  -963.009642233     A.U. after   12 cycles
 SCF Done:  E(RB3LYP) =  -963.009959294     A.U. after   10 cycles
 SCF Done:  E(RB3LYP) =  -963.009957771     A.U. after    9 cycles
 SCF Done:  E(RB3LYP) =  -963.009957615     A.U. after    7 cycles
 SCF Done:  E(RB3LYP) =  -963.009957222     A.U. after    8 cycles
 SCF Done:  E(RB3LYP) =  -963.009956504     A.U. after    8 cycles
 SCF Done:  E(RB3LYP) =  -963.009956258     A.U. after    7 cycles
 Optimization completed.
    -- Stationary point found.
 Normal termination of Gaussian 16 at Sun Jul 18 15:28:19 2021.

 --------------------------------------------------------------------
 #P Geom=AllCheck Guess=TCheck SCRF=Check GenChk RB3LYP/6-31G(d) Freq
 --------------------------------------------------------------------

 Structure from the checkpoint file:  "SET_328_BBB288_conf1.geo_210_105_285.chk"
 ---------------------------------------------
 SET_328_BBB288_conf1.geo_210_105_285 geometry
 ---------------------------------------------
 Charge = -1 Multiplicity = 1

 SCF Done:  E(RB3LYP) =  -963.009956258     A.U. after    1 cycles

  Exact polarizability: 239.646  29.678 188.099   6.992  12.212 119.785
 Approx polarizability: 292.415  53.349 251.647   7.379   7.547 158.720

                      1                      2                      3
                      A                      A                      A
 Frequencies --     16.2200                18.6782                36.4701
 Red. masses --      5.5627                11.2226                 6.0296
 Frc consts  --      0.0009                 0.0023                 0.0047
 IR Inten    --      3.9838                 2.6989                 5.0521

                      4                      5                      6
                      A                      A                      A
 Frequencies --     39.4984                88.0327               105.3550
 Red. masses --      6.5483                 5.6252                 3.8758
 Frc consts  --      0.0060                 0.0257                 0.0253
 IR Inten    --      1.4185                 0.2943                 2.4611

                      7                      8                      9
                      A                      A                      A
 Frequencies --    116.5158               129.8556               135.7952
 Red. masses --      2.9507                 4.1058                 1.5983
 Frc consts  --      0.0236                 0.0408                 0.0174
 IR Inten    --     48.3409                 9.5529               106.8264

                     10                     11                     12
                      A                      A                      A
 Frequencies --    153.7063               179.1398               191.1638
 Red. masses --      1.1726                 4.4383                 3.7384
 Frc consts  --      0.0163                 0.0839                 0.0805
 IR Inten    --      1.8642                10.6849                 8.8228

                     13                     14                     15
                      A                      A                      A
 Frequencies --    203.4326               248.5836               265.1586
 Red. masses --      7.4205                 5.0379                 4.2945
 Frc consts  --      0.1809                 0.1834                 0.1779
 IR Inten    --      3.4278                13.5866                 2.2213

                     16                     17                     18
                      A                      A                      A
 Frequencies --    287.4194               314.1519               369.4364
 Red. masses --      3.5588                 5.6773                 4.3254
 Frc consts  --      0.1732                 0.3301                 0.3478
 IR Inten    --      3.8442                 4.0326                 3.3425

                     19                     20                     21
                      A                      A                      A
 Frequencies --    378.3582               426.4938               437.2973
 Red. masses --      3.8158                 3.9217                 8.8973
 Frc consts  --      0.3218                 0.4203                 1.0024
 IR Inten    --     12.1556                 7.9411                18.9934

                     22                     23                     24
                      A                      A                      A
 Frequencies --    475.9234               491.9870               517.3175
 Red. masses --      2.8844                 5.0637                 5.1435
 Frc consts  --      0.3849                 0.7222                 0.8110
 IR Inten    --      5.2672                10.6253                10.3618

                     25                     26                     27
                      A                      A                      A
 Frequencies --    558.9026               576.3402               616.7836
 Red. masses --      4.8660                13.6095                 6.0100
 Frc consts  --      0.8956                 2.6635                 1.3471
 IR Inten    --     19.3043                19.4418                 0.9182

                     28                     29                     30
                      A                      A                      A
 Frequencies --    641.3784               690.0201               746.9098
 Red. masses --      6.8574                 4.0801                 6.6454
 Frc consts  --      1.6620                 1.1446                 2.1843
 IR Inten    --     18.1401                12.9904                36.5236

                     31                     32                     33
                      A                      A                      A
 Frequencies --    761.5891               773.3070               775.7310
 Red. masses --     11.0875                 7.7372                 6.6860
 Frc consts  --      3.7890                 2.7261                 2.3705
 IR Inten    --     33.3993                 5.0202                29.4180

                     34                     35                     36
                      A                      A                      A
 Frequencies --    784.6271               856.4518               877.2742
 Red. masses --      6.4974                 3.3025                 3.9509
 Frc consts  --      2.3568                 1.4273                 1.7915
 IR Inten    --     19.9613                 9.0114                 5.4953

                     37                     38                     39
                      A                      A                      A
 Frequencies --    894.4385               899.0738               937.3531
 Red. masses --      1.5319                 2.8382                 1.9859
 Frc consts  --      0.7221                 1.3517                 1.0280
 IR Inten    --     12.0026                60.3174                 3.3853

                     40                     41                     42
                      A                      A                      A
 Frequencies --    964.0851              1000.5607              1023.6737
 Red. masses --      2.4483                 2.1517                 2.4092
 Frc consts  --      1.3408                 1.2691                 1.4874
 IR Inten    --     34.7853               122.3621                11.9414

                     43                     44                     45
                      A                      A                      A
 Frequencies --   1045.7014              1071.0729              1076.9864
 Red. masses --      2.3458                 1.4906                 3.1923
 Frc consts  --      1.5113                 1.0075                 2.1816
 IR Inten    --     10.5143                21.5505               170.4993

                     46                     47                     48
                      A                      A                      A
 Frequencies --   1093.8267              1110.4701              1119.1451
 Red. masses --      3.7621                 3.1106                 3.2165
 Frc consts  --      2.6520                 2.2600                 2.3736
 IR Inten    --     38.1394               276.9239                28.0056

                     49                     50                     51
                      A                      A                      A
 Frequencies --   1150.9069              1195.2635              1208.5136
 Red. masses --      2.3816                 2.0765                 1.8855
 Frc consts  --      1.8587                 1.7478                 1.6225
 IR Inten    --    115.4725                63.3969                42.6127

                     52                     53                     54
                      A                      A                      A
 Frequencies --   1249.1744              1259.1009              1275.3563
 Red. masses --      1.2546                 1.6697                 1.0966
 Frc consts  --      1.1535                 1.5596                 1.0509
 IR Inten    --     60.9603                 6.4893                13.8831

                     55                     56                     57
                      A                      A                      A
 Frequencies --   1288.8022              1316.5772              1323.0996
 Red. masses --      2.4557                 4.4091                 1.3602
 Frc consts  --      2.4032                 4.5029                 1.4030
 IR Inten    --    189.9423               173.0881                10.2924

                     58                     59                     60
                      A                      A                      A
 Frequencies --   1343.0560              1350.5930              1358.2464
 Red. masses --      8.5558                 1.7617                 2.5649
 Frc consts  --      9.0928                 1.8933                 2.7879
 IR Inten    --    229.6893               137.1676               291.7588

                     61                     62                     63
                      A                      A                      A
 Frequencies --   1362.3912              1365.6901              1407.0818
 Red. masses --      1.3341                 1.4058                 1.2789
 Frc consts  --      1.4590                 1.5448                 1.4919
 IR Inten    --     22.8276                 1.2740                12.4842

                     64                     65                     66
                      A                      A                      A
 Frequencies --   1413.4837              1427.0203              1471.1261
 Red. masses --      1.6432                 1.3560                 2.5537
 Frc consts  --      1.9342                 1.6270                 3.2563
 IR Inten    --     29.3989                 5.1120               113.0541

                     67                     68                     69
                      A                      A                      A
 Frequencies --   1483.1466              1492.0581              1504.9577
 Red. masses --      1.5845                 1.0470                 1.1067
 Frc consts  --      2.0536                 1.3733                 1.4769
 IR Inten    --      4.7518                 4.2277                 9.0708

                     70                     71                     72
                      A                      A                      A
 Frequencies --   1510.3833              1528.0315              1626.7182
 Red. masses --      1.1450                 1.0884                11.7025
 Frc consts  --      1.5390                 1.4973                18.2454
 IR Inten    --     34.9487                 3.7545              1252.5184

                     73                     74                     75
                      A                      A                      A
 Frequencies --   1708.0747              1730.8545              2254.6991
 Red. masses --     10.9950                 7.2068                13.6635
 Frc consts  --     18.8998                12.7207                40.9251
 IR Inten    --    244.9207               563.8339               882.4085

                     76                     77                     78
                      A                      A                      A
 Frequencies --   3006.7211              3030.7351              3043.9910
 Red. masses --      1.0681                 1.0831                 1.0358
 Frc consts  --      5.6893                 5.8617                 5.6547
 IR Inten    --     84.3417                39.0218                79.9909

                     79                     80                     81
                      A                      A                      A
 Frequencies --   3085.9947              3086.8959              3093.3897
 Red. masses --      1.0946                 1.0649                 1.1000
 Frc consts  --      6.1420                 5.9784                 6.2014
 IR Inten    --     57.0773                 8.3165                39.9069

                     82                     83                     84
                      A                      A                      A
 Frequencies --   3109.4729              3119.4590              3139.2775
 Red. masses --      1.0864                 1.1025                 1.0937
 Frc consts  --      6.1887                 6.3210                 6.3504
 IR Inten    --     45.9073                44.7078                 4.1974

                     85                     86                     87
                      A                      A                      A
 Frequencies --   3152.3122              3231.6457              3774.5588
 Red. masses --      1.0951                 1.0910                 1.0665
 Frc consts  --      6.4113                 6.7131                 8.9525
 IR Inten    --     24.9866                15.4412                52.2380

 - Thermochemistry -
 -------------------
 Temperature   298.150 Kelvin.  Pressure   1.00000 Atm.
 Atom     1 has atomic number  6 and mass  12.00000

 Molecular mass:   266.08893 amu.
 Principal axes and moments of inertia in atomic units:
                           1         2         3
     Eigenvalues --  2849.603868518.14766**********
           X            0.99997   0.00145   0.00779
           Y           -0.00149   0.99999   0.00478
           Z           -0.00778  -0.00480   0.99996
 This molecule is an asymmetric top.
 Rotational symmetry number  1.
 Warning -- assumption of classical behavior for rotation
           may cause significant error
 Rotational temperatures (Kelvin)      0.03040     0.01017     0.00831
 Rotational constants (GHZ):           0.63333     0.21187     0.17313
 Zero-point vibrational energy     616080.1 (Joules/Mol)
                                  147.24668 (Kcal/Mol)
 Warning -- explicit consideration of  27 degrees of freedom as
           vibrations may cause significant error
 Vibrational temperatures:     23.34    26.87    52.47    56.83   126.66
          (Kelvin)            151.58   167.64   186.83   195.38   221.15
                              257.74   275.04   292.69   357.66   381.50
                              413.53   451.99   531.54   544.37   613.63
                              629.17   684.75   707.86   744.30   804.14
                              829.23   887.41   922.80   992.78  1074.64
                             1095.76  1112.62  1116.10  1128.90  1232.24
                             1262.20  1286.90  1293.57  1348.64  1387.10
                             1439.58  1472.84  1504.53  1541.04  1549.54
                             1573.77  1597.72  1610.20  1655.90  1719.72
                             1738.78  1797.28  1811.57  1834.95  1854.30
                             1894.26  1903.65  1932.36  1943.20  1954.21
                             1960.18  1964.92  2024.48  2033.69  2053.16
                             2116.62  2133.92  2146.74  2165.30  2173.10
                             2198.50  2340.48  2457.54  2490.31  3244.01
                             4326.00  4360.55  4379.62  4440.06  4441.35
                             4450.70  4473.84  4488.21  4516.72  4535.47
                             4649.62  5430.75

 Zero-point correction=                           0.234653 (Hartree/Particle)
 Thermal correction to Energy=                    0.252600
 Thermal correction to Enthalpy=                  0.253544
 Thermal correction to Gibbs Free Energy=         0.185266
 Sum of electronic and zero-point Energies=           -962.775304
 Sum of electronic and thermal Energies=              -962.757357
 Sum of electronic and thermal Enthalpies=            -962.756413
 Sum of electronic and thermal Free Energies=         -962.824690

                     E (Thermal)             CV                S
                      KCal/Mol        Cal/Mol-Kelvin    Cal/Mol-Kelvin
 Total                  158.509             64.556            143.702
 Electronic               0.000              0.000              0.000
 Translational            0.889              2.981             42.635
 Rotational               0.889              2.981             33.892
 Vibrational            156.731             58.594             67.175
 Vibration     1          0.593              1.986              7.050
 Vibration     2          0.593              1.986              6.770
 Vibration     3          0.594              1.982              5.442
 Vibration     4          0.594              1.981              5.284
 Vibration     5          0.601              1.958              3.703
 Vibration     6          0.605              1.945              3.353
 Vibration     7          0.608              1.936              3.157
 Vibration     8          0.612              1.923              2.948
 Vibration     9          0.614              1.918              2.862
 Vibration    10          0.619              1.899              2.626
 Vibration    11          0.629              1.868              2.337
 Vibration    12          0.634              1.852              2.217
 Vibration    13          0.639              1.835              2.102
 Vibration    14          0.662              1.765              1.741
 Vibration    15          0.671              1.737              1.628
 Vibration    16          0.685              1.697              1.489
 Vibration    17          0.702              1.647              1.340
 Vibration    18          0.742              1.535              1.082
 Vibration    19          0.749              1.516              1.046
 Vibration    20          0.788              1.413              0.870
 Vibration    21          0.798              1.389              0.835
 Vibration    22          0.833              1.303              0.721
 Vibration    23          0.848              1.268              0.678
 Vibration    24          0.872              1.212              0.616
 Vibration    25          0.914              1.120              0.526
 Vibration    26          0.933              1.082              0.492
 Vibration    27          0.976              0.996              0.422

                           ! Non-Optimized Parameters !
 Normal termination of Gaussian 16 at Sun Jul 18 16:00:47 2021.

 ----------------------------------------------------------------------
 #p b3lyp/6-31G(d) scrf=(iefpcm,read,solvent=n-octanol) geom=allcheck g
 uess=read
 ----------------------------------------------------------------------

 Structure from the checkpoint file:  "SET_328_BBB288_conf1.geo_210_105_285.chk"
 ---------------------------------------------
 SET_328_BBB288_conf1.geo_210_105_285 geometry
 ---------------------------------------------
 Charge = -1 Multiplicity = 1

 SCF Done:  E(RB3LYP) =  -963.009956258     A.U. after    1 cycles
 Normal termination of Gaussian 16 at Sun Jul 18 16:01:35 2021.

 -----------------------------
 #p B3LYP/6-31G* geom=allcheck
 -----------------------------

 Structure from the checkpoint file:  "SET_328_BBB288_conf1.geo_210_105_285.chk"
 ---------------------------------------------
 SET_328_BBB288_conf1.geo_210_105_285 geometry
 ---------------------------------------------
 Charge = -1 Multiplicity = 1

 SCF Done:  E(RB3LYP) =  -962.913722240     A.U. after   20 cycles
 Normal termination of Gaussian 16 at Sun Jul 18 16:04:24 2021.
 Gaussian 16:  ES64L-G16RevA.03 25-Dec-2016

 --------------------------------------------------------
 #p mp2/aug-cc-pVDZ scf=tight maxdisk=180GB geom=allcheck
 --------------------------------------------------------

 Structure from the checkpoint file:  "SET_328_BBB288_conf1.geo_210_105_285.chk"
 ---------------------------------------------
 SET_328_BBB288_conf1.geo_210_105_285 geometry
 ---------------------------------------------
 Charge = -1 Multiplicity = 1

                         Standard orientation:
 ---------------------------------------------------------------------
 Center     Atomic      Atomic             Coordinates (Angstroms)
 Number     Number       Type             X           Y           Z
 ---------------------------------------------------------------------
      1          6           0        3.802232    1.914858    1.116663
      2          1           0        3.105811    2.691182    1.448836
      3          1           0        4.512558    2.365573    0.414818
      4          1           0        4.394564    1.588997    1.979738
      5          6           0        3.076169    0.763952    0.488821
      6          6           0        3.851823   -0.378340   -0.031159
      7          7           0        3.190957   -1.426250   -0.619230
      8          6           0        1.848649   -1.451730   -0.736748
      9          8           0        1.202842   -2.393577   -1.236890
     10          8           0        5.096875   -0.370596    0.072794
     11          6           0        1.733904    0.727300    0.352399
     12          1           0        1.080414    1.533238    0.664265
     13          7           0        1.100071   -0.334946   -0.248074
     14          6           0       -0.347375   -0.371533   -0.347943
     15          8           0       -0.854199    0.935960   -0.650969
     16          6           0       -1.947712    1.274451    0.213189
     17          6           0       -3.021677    2.011889   -0.562931
     18          8           0       -2.521462    3.302822   -0.880740
     19          1           0       -3.151770    3.719072   -1.486883
     20          1           0       -3.926979    2.074651    0.061173
     21          1           0       -3.269935    1.432645   -1.459383
     22          1           0       -1.586483    1.942147    1.007909
     23          1           0       -0.565912   -1.057833   -1.165005
     24          6           0       -1.067276   -0.799781    0.942111
     25          1           0       -0.504640   -0.453904    1.814609
     26          1           0       -1.177394   -1.884244    1.014738
     27          6           0       -2.394885   -0.043071    0.862397
     28          1           0       -2.859139    0.123047    1.837204
     29          7           0       -3.368923   -0.713942   -0.045049
     30          7           0       -3.928278   -1.709720    0.415996
     31          7           0       -4.514779   -2.637916    0.732590
 ---------------------------------------------------------------------

 SCF Done:  E(RHF) =  -957.452101596     A.U. after   19 cycles
 E2 =    -0.3052361518D+01 EUMP2 =    -0.96050446311445D+03

 The electronic state is 1-A.
 Alpha  occ. eigenvalues --  -20.50398 -20.48095 -20.35398 -20.34660 -15.72837
 Alpha  occ. eigenvalues --  -15.61076 -15.54997 -15.46923 -15.36289 -11.22346
 Alpha  occ. eigenvalues --  -11.22064 -11.22012 -11.21651 -11.21544 -11.17757
 Alpha  occ. eigenvalues --  -11.15946 -11.15573 -11.10727 -11.09627  -1.43724
 Alpha  occ. eigenvalues --   -1.31080  -1.29155  -1.22691  -1.22225  -1.18315
 Alpha  occ. eigenvalues --   -1.12349  -1.01380  -1.00838  -0.95286  -0.92751
 Alpha  occ. eigenvalues --   -0.84350  -0.80797  -0.77439  -0.72810  -0.71381
 Alpha  occ. eigenvalues --   -0.67516  -0.66096  -0.64636  -0.63344  -0.61983
 Alpha  occ. eigenvalues --   -0.60413  -0.59293  -0.58296  -0.56675  -0.55748
 Alpha  occ. eigenvalues --   -0.51871  -0.50750  -0.50564  -0.48520  -0.46837
 Alpha  occ. eigenvalues --   -0.45817  -0.45423  -0.44185  -0.43588  -0.43373
 Alpha  occ. eigenvalues --   -0.42195  -0.41930  -0.40260  -0.39689  -0.38099
 Alpha  occ. eigenvalues --   -0.36133  -0.35756  -0.34148  -0.32138  -0.30679
 Alpha  occ. eigenvalues --   -0.28563  -0.25472  -0.22998  -0.18958  -0.17810
 Alpha virt. eigenvalues --    0.08792   0.09718   0.10873   0.11804   0.12349
 Alpha virt. eigenvalues --    0.13250   0.13771   0.13984   0.15096   0.15340
 Alpha virt. eigenvalues --    0.16171   0.16362   0.17258   0.18208   0.18952

 Mulliken charges:
               1
     1  C    0.446611
     2  H   -0.160073
     3  H    0.065539
     4  H    0.071031
     5  C    0.192682
     6  C    0.620874
     7  N   -0.836227
     8  C    0.947233
     9  O   -0.935341
    10  O   -1.057802
    11  C    1.054852
    12  H   -0.702877
    13  N   -0.747760
    14  C    0.995780
    15  O   -1.205891
    16  C    0.608706
    17  C    1.220068
    18  O   -0.752655
    19  H    0.153090
    20  H   -0.099107
    21  H   -0.036571
    22  H   -0.256601
    23  H   -0.427187
    24  C    0.573446
    25  H   -0.173498
    26  H   -0.141242
    27  C    0.688831
    28  H   -0.271665
    29  N   -0.848363
    30  N    0.418212
    31  N   -0.404095
 Sum of Mulliken charges =  -1.00000

 Dipole moment (field-independent basis, Debye):
    X=            -17.0802    Y=              7.6279    Z=              4.6915  Tot=             19.2854
 Quadrupole moment (field-independent basis, Debye-Ang):
   XX=           -192.0433   YY=           -139.7124   ZZ=           -115.5410
   XY=              9.6918   XZ=              6.9829   YZ=             -9.5150

 Normal termination of Gaussian 16 at Sun Jul 18 17:08:35 2021.
