 Gaussian 16, Revision A.03,

 ---------------------------------------------------------------
 #p b3lyp/6-31G(d) opt freq scrf=(iefpcm,read,solvent=n-octanol)
 ---------------------------------------------------------------

 ---------------------------------------------
 SET_328_BBB321_conf1.geo_180_030_240 geometry
 ---------------------------------------------
 Symbolic Z-matrix:
 Charge =  1 Multiplicity = 1

 SCF Done:  E(RB3LYP) =  -1212.46289382     A.U. after   19 cycles
 SCF Done:  E(RB3LYP) =  -1212.60614507     A.U. after   14 cycles
 SCF Done:  E(RB3LYP) =  -1212.67885773     A.U. after   15 cycles
 SCF Done:  E(RB3LYP) =  -1212.73671635     A.U. after   13 cycles
 SCF Done:  E(RB3LYP) =  -1212.77104214     A.U. after   12 cycles
 SCF Done:  E(RB3LYP) =  -1212.79110132     A.U. after   12 cycles
 SCF Done:  E(RB3LYP) =  -1212.80748964     A.U. after   14 cycles
 SCF Done:  E(RB3LYP) =  -1212.81253376     A.U. after   11 cycles
 SCF Done:  E(RB3LYP) =  -1212.81702270     A.U. after   14 cycles
 SCF Done:  E(RB3LYP) =  -1212.81785767     A.U. after   11 cycles
 SCF Done:  E(RB3LYP) =  -1212.81918154     A.U. after    8 cycles
 SCF Done:  E(RB3LYP) =  -1212.81916825     A.U. after    9 cycles
 SCF Done:  E(RB3LYP) =  -1212.81916845     A.U. after    7 cycles
 SCF Done:  E(RB3LYP) =  -1212.81918056     A.U. after    9 cycles
 SCF Done:  E(RB3LYP) =  -1212.81918147     A.U. after    8 cycles
 SCF Done:  E(RB3LYP) =  -1212.81916827     A.U. after    9 cycles
 Optimization completed.
    -- Stationary point found.
 Normal termination of Gaussian 16 at Sun Jul 18 19:22:43 2021.

 --------------------------------------------------------------------
 #P Geom=AllCheck Guess=TCheck SCRF=Check GenChk RB3LYP/6-31G(d) Freq
 --------------------------------------------------------------------

 Structure from the checkpoint file:  "SET_328_BBB321_conf1.geo_180_030_240.chk"
 ---------------------------------------------
 SET_328_BBB321_conf1.geo_180_030_240 geometry
 ---------------------------------------------
 Charge =  1 Multiplicity = 1

 SCF Done:  E(RB3LYP) =  -1212.81916827     A.U. after    1 cycles

  Exact polarizability: 334.214  -9.861 278.005  -9.117  -2.389  83.370
 Approx polarizability: 392.330 -16.455 346.685 -13.869  -3.814 111.777

                      1                      2                      3
                      A                      A                      A
 Frequencies --     28.2415                38.1965                66.0527
 Red. masses --      4.6209                 7.7689                 2.1824
 Frc consts  --      0.0022                 0.0067                 0.0056
 IR Inten    --      0.1617                 8.0701                 5.6886

                      4                      5                      6
                      A                      A                      A
 Frequencies --     69.5093                78.3813                91.9361
 Red. masses --      2.9843                 4.1041                 5.6581
 Frc consts  --      0.0085                 0.0149                 0.0282
 IR Inten    --      2.8973                 2.9065                 9.1975

                      7                      8                      9
                      A                      A                      A
 Frequencies --    110.8841               117.5539               141.2172
 Red. masses --      3.3049                 2.5007                 5.0296
 Frc consts  --      0.0239                 0.0204                 0.0591
 IR Inten    --      0.8596                 0.6696                12.0021

                     10                     11                     12
                      A                      A                      A
 Frequencies --    210.8466               230.9847               248.8653
 Red. masses --      5.9860                 1.2771                 4.0686
 Frc consts  --      0.1568                 0.0401                 0.1485
 IR Inten    --     11.9514               254.7387                35.0020

                     13                     14                     15
                      A                      A                      A
 Frequencies --    262.2832               268.6520               279.9829
 Red. masses --      4.3330                 4.7557                 4.5660
 Frc consts  --      0.1756                 0.2022                 0.2109
 IR Inten    --      7.4922                26.0205                21.1597

                     16                     17                     18
                      A                      A                      A
 Frequencies --    331.1947               339.0337               348.9056
 Red. masses --      3.4129                 6.5239                 1.5143
 Frc consts  --      0.2206                 0.4418                 0.1086
 IR Inten    --     53.3053                20.0787               131.6612

                     19                     20                     21
                      A                      A                      A
 Frequencies --    357.0063               412.2410               415.7197
 Red. masses --      3.8609                 4.3393                 1.1622
 Frc consts  --      0.2899                 0.4345                 0.1183
 IR Inten    --      0.8037                 9.8912               162.1184

                     22                     23                     24
                      A                      A                      A
 Frequencies --    454.9873               495.1218               531.4832
 Red. masses --      3.4146                 4.9929                 2.1787
 Frc consts  --      0.4165                 0.7212                 0.3626
 IR Inten    --      1.5432                 4.5953                17.0284

                     25                     26                     27
                      A                      A                      A
 Frequencies --    543.0722               545.1581               549.9845
 Red. masses --      2.4092                 2.6305                 2.5054
 Frc consts  --      0.4186                 0.4606                 0.4465
 IR Inten    --    143.0763                53.1709                 1.1201

                     28                     29                     30
                      A                      A                      A
 Frequencies --    587.8706               611.4847               625.7457
 Red. masses --      2.9246                 1.4452                 8.4207
 Frc consts  --      0.5955                 0.3184                 1.9426
 IR Inten    --     25.8093               117.5138                 0.8386

                     31                     32                     33
                      A                      A                      A
 Frequencies --    628.3371               663.5829               673.3156
 Red. masses --      2.3218                 6.0332                 1.2575
 Frc consts  --      0.5401                 1.5653                 0.3359
 IR Inten    --      5.0867                 5.9019                11.9918

                     34                     35                     36
                      A                      A                      A
 Frequencies --    694.9176               702.1062               708.6741
 Red. masses --      3.0489                 1.9105                 4.0886
 Frc consts  --      0.8675                 0.5549                 1.2098
 IR Inten    --      0.9262                 1.0250                 4.2185

                     37                     38                     39
                      A                      A                      A
 Frequencies --    711.1085               747.5384               815.0001
 Red. masses --      4.1995                 1.9637                 1.5907
 Frc consts  --      1.2512                 0.6465                 0.6225
 IR Inten    --      6.6386                72.5317                27.4268

                     40                     41                     42
                      A                      A                      A
 Frequencies --    827.7924               871.3760               885.6653
 Red. masses --      5.7416                 6.1948                 4.3135
 Frc consts  --      2.3181                 2.7713                 1.9935
 IR Inten    --     32.4005                25.3089                 1.5767

                     43                     44                     45
                      A                      A                      A
 Frequencies --    902.8506               917.8231               952.9026
 Red. masses --      1.5834                 1.3793                 5.1697
 Frc consts  --      0.7605                 0.6846                 2.7658
 IR Inten    --     25.6808                 0.4012                 0.7839

                     46                     47                     48
                      A                      A                      A
 Frequencies --    995.3170              1007.1167              1012.0579
 Red. masses --      1.2701                 4.6948                 4.2985
 Frc consts  --      0.7413                 2.8056                 2.5940
 IR Inten    --      1.3323                 0.4975                25.0366

                     49                     50                     51
                      A                      A                      A
 Frequencies --   1017.9690              1041.1490              1065.6358
 Red. masses --      4.3983                 1.8321                 1.6823
 Frc consts  --      2.6854                 1.1701                 1.1256
 IR Inten    --      7.5313                16.3627                13.9148

                     52                     53                     54
                      A                      A                      A
 Frequencies --   1091.1946              1114.2442              1121.8541
 Red. masses --      1.3948                 1.7497                 1.7510
 Frc consts  --      0.9785                 1.2799                 1.2984
 IR Inten    --      2.1057                10.8091                27.3070

                     55                     56                     57
                      A                      A                      A
 Frequencies --   1151.6699              1201.5303              1227.8771
 Red. masses --      1.6802                 1.1755                 1.6833
 Frc consts  --      1.3130                 0.9999                 1.4953
 IR Inten    --     16.2163                 2.4193                49.0734

                     58                     59                     60
                      A                      A                      A
 Frequencies --   1248.6236              1270.1762              1288.2939
 Red. masses --      2.6849                 2.6348                 2.3032
 Frc consts  --      2.4663                 2.5045                 2.2523
 IR Inten    --    189.4121               117.5475                52.3220

                     61                     62                     63
                      A                      A                      A
 Frequencies --   1349.0632              1362.6620              1378.3954
 Red. masses --      2.1669                 3.9493                 3.0484
 Frc consts  --      2.3236                 4.3207                 3.4124
 IR Inten    --    196.6120                26.0085                30.7441

                     64                     65                     66
                      A                      A                      A
 Frequencies --   1425.2473              1443.2535              1496.8886
 Red. masses --      1.2470                 2.8171                 1.0573
 Frc consts  --      1.4925                 3.4573                 1.3958
 IR Inten    --     33.1309               166.7850                11.0808

                     67                     68                     69
                      A                      A                      A
 Frequencies --   1500.3266              1514.2711              1539.2206
 Red. masses --      1.7278                 1.0847                 2.5642
 Frc consts  --      2.2915                 1.4655                 3.5794
 IR Inten    --     19.0627                10.8642               295.2856

                     70                     71                     72
                      A                      A                      A
 Frequencies --   1549.9118              1560.0225              1590.3151
 Red. masses --      2.5070                 3.7899                 2.6472
 Frc consts  --      3.5483                 5.4342                 3.9446
 IR Inten    --    547.9877               126.0889               300.4482

                     73                     74                     75
                      A                      A                      A
 Frequencies --   1603.1124              1624.3952              1649.0900
 Red. masses --      3.0104                 1.3873                 4.2048
 Frc consts  --      4.5584                 2.1568                 6.7373
 IR Inten    --     13.3154               328.1155                74.7340

                     76                     77                     78
                      A                      A                      A
 Frequencies --   1661.1516              1665.2706              1719.5052
 Red. masses --      1.6612                 5.4958                 3.8566
 Frc consts  --      2.7008                 8.9795                 6.7184
 IR Inten    --    847.3933               146.8789               882.6787

                     79                     80                     81
                      A                      A                      A
 Frequencies --   1771.1318              3085.4922              3154.7393
 Red. masses --      7.8876                 1.0374                 1.1005
 Frc consts  --     14.5779                 5.8191                 6.4529
 IR Inten    --    322.3472                 7.5142                14.0899

                     82                     83                     84
                      A                      A                      A
 Frequencies --   3178.3375              3208.1888              3225.5506
 Red. masses --      1.1035                 1.0876                 1.0935
 Frc consts  --      6.5680                 6.5953                 6.7032
 IR Inten    --     15.5221                15.8052                29.8386

                     85                     86                     87
                      A                      A                      A
 Frequencies --   3229.4561              3288.0266              3314.4341
 Red. masses --      1.0893                 1.0919                 1.0943
 Frc consts  --      6.6935                 6.9551                 7.0829
 IR Inten    --      3.7916                 9.7174                 7.6935

                     88                     89                     90
                      A                      A                      A
 Frequencies --   3474.8134              3573.7329              3596.9981
 Red. masses --      1.0548                 1.0476                 1.0770
 Frc consts  --      7.5035                 7.8828                 8.2099
 IR Inten    --    414.9225               275.4302               260.4182

                     91                     92                     93
                      A                      A                      A
 Frequencies --   3626.1668              3639.1789              3685.1450
 Red. masses --      1.0775                 1.1000                 1.1085
 Frc consts  --      8.3473                 8.5831                 8.8692
 IR Inten    --     50.0764               409.7693               215.1680

 - Thermochemistry -
 -------------------
 Temperature   298.150 Kelvin.  Pressure   1.00000 Atm.
 Atom     1 has atomic number  6 and mass  12.00000

 Molecular mass:   276.09191 amu.
 Principal axes and moments of inertia in atomic units:
                           1         2         3
     Eigenvalues --  3369.29110********************
           X            1.00000   0.00290   0.00100
           Y           -0.00289   0.99999  -0.00207
           Z           -0.00101   0.00206   1.00000
 This molecule is an asymmetric top.
 Rotational symmetry number  1.
 Warning -- assumption of classical behavior for rotation
           may cause significant error
 Rotational temperatures (Kelvin)      0.02571     0.00799     0.00612
 Rotational constants (GHZ):           0.53564     0.16653     0.12753
 Zero-point vibrational energy     685662.3 (Joules/Mol)
                                  163.87723 (Kcal/Mol)
 Warning -- explicit consideration of  29 degrees of freedom as
           vibrations may cause significant error
 Vibrational temperatures:     40.63    54.96    95.04   100.01   112.77
          (Kelvin)            132.28   159.54   169.13   203.18   303.36
                              332.34   358.06   377.37   386.53   402.83
                              476.52   487.79   502.00   513.65   593.12
                              598.13   654.63   712.37   764.69   781.36
                              784.36   791.30   845.81   879.79   900.31
                              904.04   954.75   968.75   999.83  1010.17
                             1019.62  1023.13  1075.54  1172.60  1191.01
                             1253.72  1274.27  1299.00  1320.54  1371.01
                             1432.04  1449.02  1456.13  1464.63  1497.98
                             1533.21  1569.99  1603.15  1614.10  1657.00
                             1728.73  1766.64  1796.49  1827.50  1853.57
                             1941.00  1960.57  1983.20  2050.61  2076.52
                             2153.69  2158.64  2178.70  2214.60  2229.98
                             2244.52  2288.11  2306.52  2337.14  2372.67
                             2390.03  2395.95  2473.98  2548.26  4439.34
                             4538.97  4572.92  4615.87  4640.85  4646.47
                             4730.74  4768.73  4999.48  5141.80  5175.28
                             5217.25  5235.97  5302.10

 Zero-point correction=                           0.261155 (Hartree/Particle)
 Thermal correction to Energy=                    0.279442
 Thermal correction to Enthalpy=                  0.280387
 Thermal correction to Gibbs Free Energy=         0.213588
 Sum of electronic and zero-point Energies=          -1212.558013
 Sum of electronic and thermal Energies=             -1212.539726
 Sum of electronic and thermal Enthalpies=           -1212.538782
 Sum of electronic and thermal Free Energies=        -1212.605580

                     E (Thermal)             CV                S
                      KCal/Mol        Cal/Mol-Kelvin    Cal/Mol-Kelvin
 Total                  175.353             69.485            140.589
 Electronic               0.000              0.000              0.000
 Translational            0.889              2.981             42.745
 Rotational               0.889              2.981             34.601
 Vibrational            173.575             63.523             63.243
 Vibration     1          0.593              1.984              5.949
 Vibration     2          0.594              1.982              5.350
 Vibration     3          0.597              1.970              4.268
 Vibration     4          0.598              1.969              4.167
 Vibration     5          0.600              1.964              3.931
 Vibration     6          0.602              1.955              3.618
 Vibration     7          0.607              1.940              3.253
 Vibration     8          0.608              1.935              3.140
 Vibration     9          0.615              1.912              2.787
 Vibration    10          0.643              1.824              2.036
 Vibration    11          0.653              1.794              1.871
 Vibration    12          0.662              1.765              1.739
 Vibration    13          0.670              1.742              1.647
 Vibration    14          0.673              1.731              1.605
 Vibration    15          0.680              1.711              1.534
 Vibration    16          0.714              1.613              1.254
 Vibration    17          0.719              1.598              1.217
 Vibration    18          0.726              1.577              1.171
 Vibration    19          0.732              1.561              1.135
 Vibration    20          0.776              1.444              0.919
 Vibration    21          0.779              1.436              0.907
 Vibration    22          0.813              1.350              0.781
 Vibration    23          0.851              1.261              0.670
 Vibration    24          0.886              1.180              0.584
 Vibration    25          0.898              1.155              0.559
 Vibration    26          0.900              1.150              0.554
 Vibration    27          0.905              1.140              0.544
 Vibration    28          0.945              1.058              0.471
 Vibration    29          0.971              1.008              0.430

 Optimization completed.
    -- Stationary point found.
 Normal termination of Gaussian 16 at Sun Jul 18 19:53:19 2021.

 ----------------------------------------------------------------------
 #p b3lyp/6-31G(d) scrf=(iefpcm,read,solvent=n-octanol) geom=allcheck g
 uess=read
 ----------------------------------------------------------------------

 Structure from the checkpoint file:  "SET_328_BBB321_conf1.geo_180_030_240.chk"
 ---------------------------------------------
 SET_328_BBB321_conf1.geo_180_030_240 geometry
 ---------------------------------------------
 Charge =  1 Multiplicity = 1

 SCF Done:  E(RB3LYP) =  -1212.81916827     A.U. after    2 cycles
 Normal termination of Gaussian 16 at Sun Jul 18 19:54:20 2021.

 -----------------------------
 #p B3LYP/6-31G* geom=allcheck
 -----------------------------

 Structure from the checkpoint file:  "SET_328_BBB321_conf1.geo_180_030_240.chk"
 ---------------------------------------------
 SET_328_BBB321_conf1.geo_180_030_240 geometry
 ---------------------------------------------
 Charge =  1 Multiplicity = 1

 SCF Done:  E(RB3LYP) =  -1212.69200794     A.U. after   17 cycles
 Normal termination of Gaussian 16 at Sun Jul 18 19:56:43 2021.
 Gaussian 16:  ES64L-G16RevA.03 25-Dec-2016

 --------------------------------------------------------
 #p mp2/aug-cc-pVDZ scf=tight maxdisk=180GB geom=allcheck
 --------------------------------------------------------

 Structure from the checkpoint file:  "SET_328_BBB321_conf1.geo_180_030_240.chk"
 ---------------------------------------------
 SET_328_BBB321_conf1.geo_180_030_240 geometry
 ---------------------------------------------
 Charge =  1 Multiplicity = 1

                         Standard orientation:
 ---------------------------------------------------------------------
 Center     Atomic      Atomic             Coordinates (Angstroms)
 Number     Number       Type             X           Y           Z
 ---------------------------------------------------------------------
      1          6           0       -4.987626    2.758413   -0.207937
      2          1           0       -4.161877    3.390178   -0.540357
      3          1           0       -5.333325    3.118892    0.765290
      4          1           0       -5.818028    2.856105   -0.908218
      5          6           0       -4.626058    1.290480   -0.087326
      6          8           0       -5.483936    0.426216    0.056841
      7          7           0       -3.277195    1.029699   -0.132542
      8          1           0       -2.670600    1.828683   -0.255852
      9          6           0       -2.615102   -0.207309   -0.015840
     10          6           0       -3.286339   -1.428011    0.144424
     11          6           0       -2.539459   -2.602547    0.248557
     12          6           0       -1.149954   -2.587704    0.198848
     13          1           0       -0.590626   -3.511511    0.295160
     14          1           0       -3.059699   -3.545989    0.375895
     15          1           0       -4.364632   -1.435076    0.186469
     16          6           0       -1.214800   -0.188547   -0.068770
     17          1           0       -0.690849    0.750962   -0.201263
     18          6           0       -0.472520   -1.368667    0.037374
     19          6           0        0.998023   -1.319921   -0.025331
     20          7           0        1.645497   -0.091005    0.010763
     21          6           0        1.836367   -2.395094   -0.130366
     22          1           0        1.582923   -3.440626   -0.196918
     23         16           0        3.497480   -1.891238   -0.179634
     24          6           0        2.935786   -0.232066   -0.062466
     25          7           0        3.849326    0.811350   -0.044672
     26          6           0        3.565827    2.139704    0.109804
     27          7           0        2.323304    2.548705    0.308227
     28          1           0        1.571229    1.862891    0.312745
     29          1           0        2.123476    3.538158    0.405094
     30          7           0        4.582104    2.994002    0.048045
     31          1           0        5.536744    2.667289   -0.046866
     32          1           0        4.427963    3.981477    0.217390
     33          1           0        4.832982    0.587001   -0.163718
 ---------------------------------------------------------------------

 SCF Done:  E(RHF) =  -1207.15336521     A.U. after   18 cycles
 E2 =    -0.2816376689D+01 EUMP2 =    -0.12099697418980D+04

 The electronic state is 1-A.
 Alpha  occ. eigenvalues --  -92.13673 -20.60951 -15.81879 -15.80449 -15.79141
 Alpha  occ. eigenvalues --  -15.72293 -15.69540 -11.61105 -11.51660 -11.44520
 Alpha  occ. eigenvalues --  -11.41377 -11.39216 -11.38406 -11.35642 -11.33934
 Alpha  occ. eigenvalues --  -11.33116 -11.32986 -11.32006 -11.31946  -9.13831
 Alpha  occ. eigenvalues --   -6.81994  -6.81886  -6.81693  -1.55566  -1.46364
 Alpha  occ. eigenvalues --   -1.45769  -1.39981  -1.39152  -1.34317  -1.24686
 Alpha  occ. eigenvalues --   -1.20603  -1.17042  -1.11924  -1.11049  -1.06971
 Alpha  occ. eigenvalues --   -1.05483  -0.99855  -0.99142  -0.95758  -0.93264
 Alpha  occ. eigenvalues --   -0.91926  -0.89365  -0.87046  -0.86153  -0.84623
 Alpha  occ. eigenvalues --   -0.83591  -0.82269  -0.80088  -0.77068  -0.76365
 Alpha  occ. eigenvalues --   -0.72563  -0.72346  -0.70973  -0.69931  -0.69819
 Alpha  occ. eigenvalues --   -0.68855  -0.66421  -0.64485  -0.64105  -0.63756
 Alpha  occ. eigenvalues --   -0.62788  -0.61884  -0.60932  -0.59766  -0.58391
 Alpha  occ. eigenvalues --   -0.58123  -0.53363  -0.52341  -0.49955  -0.47463
 Alpha  occ. eigenvalues --   -0.41411  -0.38899
 Alpha virt. eigenvalues --   -0.09474  -0.07570  -0.06006  -0.05111  -0.04181
 Alpha virt. eigenvalues --   -0.03963  -0.03911  -0.03105  -0.02299  -0.01798
 Alpha virt. eigenvalues --   -0.01503  -0.00889  -0.00594   0.00197   0.00558

 Mulliken charges:
               1
     1  C    0.489213
     2  H   -0.184365
     3  H    0.069116
     4  H    0.029748
     5  C    0.526288
     6  O   -0.852288
     7  N   -0.560275
     8  H   -0.044135
     9  C   -0.361654
    10  C    1.287528
    11  C   -0.056278
    12  C    0.856570
    13  H   -0.654252
    14  H   -0.515217
    15  H   -0.640318
    16  C    0.868665
    17  H   -0.808241
    18  C    1.670557
    19  C   -0.659073
    20  N   -0.661721
    21  C    0.486014
    22  H   -0.566641
    23  S    0.474513
    24  C    0.431028
    25  N   -0.699921
    26  C    1.356078
    27  N   -0.167404
    28  H    0.129071
    29  H    0.005359
    30  N   -0.264627
    31  H   -0.000160
    32  H    0.029164
    33  H   -0.012343
 Sum of Mulliken charges =   1.00000

 Dipole moment (field-independent basis, Debye):
    X=             17.4308    Y=             10.1267    Z=              0.0613  Tot=             20.1590
 Quadrupole moment (field-independent basis, Debye-Ang):
   XX=            -48.9333   YY=            -56.8771   ZZ=           -123.8890
   XY=             24.5856   XZ=              1.7886   YZ=              1.5574

 Normal termination of Gaussian 16 at Sun Jul 18 21:08:00 2021.
