 Gaussian 16, Revision A.03,

 ---------------------------------------------------------------
 #p b3lyp/6-31G(d) opt freq scrf=(iefpcm,read,solvent=n-octanol)
 ---------------------------------------------------------------

 --------------------------------------------
 SET_328_BBB20_conf1.geo_120_180_300 geometry
 --------------------------------------------
 Symbolic Z-matrix:
 Charge =  1 Multiplicity = 1

 SCF Done:  E(RB3LYP) =  -769.775108720     A.U. after   13 cycles
 SCF Done:  E(RB3LYP) =  -769.811545276     A.U. after   11 cycles
 SCF Done:  E(RB3LYP) =  -769.813840074     A.U. after   12 cycles
 SCF Done:  E(RB3LYP) =  -769.833749960     A.U. after   11 cycles
 SCF Done:  E(RB3LYP) =  -769.835607694     A.U. after   11 cycles
 SCF Done:  E(RB3LYP) =  -769.836069423     A.U. after   10 cycles
 SCF Done:  E(RB3LYP) =  -769.836406453     A.U. after   10 cycles
 SCF Done:  E(RB3LYP) =  -769.836720512     A.U. after   10 cycles
 SCF Done:  E(RB3LYP) =  -769.836876952     A.U. after   11 cycles
 SCF Done:  E(RB3LYP) =  -769.836556019     A.U. after   10 cycles
 SCF Done:  E(RB3LYP) =  -769.837331223     A.U. after    9 cycles
 SCF Done:  E(RB3LYP) =  -769.837341816     A.U. after    8 cycles
 SCF Done:  E(RB3LYP) =  -769.837348496     A.U. after    8 cycles
 SCF Done:  E(RB3LYP) =  -769.837333013     A.U. after    9 cycles
 SCF Done:  E(RB3LYP) =  -769.837330594     A.U. after    7 cycles
 SCF Done:  E(RB3LYP) =  -769.837327824     A.U. after    7 cycles
 Optimization completed.
    -- Stationary point found.
 Normal termination of Gaussian 16 at Sun Jul 18 17:00:53 2021.

 --------------------------------------------------------------------
 #P Geom=AllCheck Guess=TCheck SCRF=Check GenChk RB3LYP/6-31G(d) Freq
 --------------------------------------------------------------------

 Structure from the checkpoint file:  "SET_328_BBB20_conf1.geo_120_180_300.chk"
 --------------------------------------------
 SET_328_BBB20_conf1.geo_120_180_300 geometry
 --------------------------------------------
 Charge =  1 Multiplicity = 1

 SCF Done:  E(RB3LYP) =  -769.837327824     A.U. after    1 cycles

  Exact polarizability: 250.332 -20.894 258.944  31.827  26.681 171.877
 Approx polarizability: 290.696 -14.533 315.286  44.442  38.929 225.120

                      1                      2                      3
                      A                      A                      A
 Frequencies --     40.6752                66.1714                83.2394
 Red. masses --      4.2148                 3.8918                 4.1701
 Frc consts  --      0.0041                 0.0100                 0.0170
 IR Inten    --      1.1931                23.3383                 7.5817

                      4                      5                      6
                      A                      A                      A
 Frequencies --     97.5886               122.6170               147.1337
 Red. masses --      3.6415                 2.4769                 3.4846
 Frc consts  --      0.0204                 0.0219                 0.0444
 IR Inten    --      1.3526                 4.5386                 7.4221

                      7                      8                      9
                      A                      A                      A
 Frequencies --    171.0209               179.2198               233.4135
 Red. masses --      2.8084                 2.7246                 2.3509
 Frc consts  --      0.0484                 0.0516                 0.0755
 IR Inten    --      0.6669                15.0502                 2.5695

                     10                     11                     12
                      A                      A                      A
 Frequencies --    268.6623               274.6494               308.3541
 Red. masses --      3.0128                 3.0588                 3.0016
 Frc consts  --      0.1281                 0.1359                 0.1682
 IR Inten    --      5.5922                 2.8225                 3.0949

                     13                     14                     15
                      A                      A                      A
 Frequencies --    319.4469               338.2081               362.8467
 Red. masses --      3.3060                 3.6403                 1.1400
 Frc consts  --      0.1988                 0.2453                 0.0884
 IR Inten    --      0.1847                 3.4977                 1.9725

                     16                     17                     18
                      A                      A                      A
 Frequencies --    366.5346               427.6045               443.0211
 Red. masses --      3.6787                 4.6572                 2.8379
 Frc consts  --      0.2912                 0.5017                 0.3282
 IR Inten    --      3.7526                11.7195                 0.9537

                     19                     20                     21
                      A                      A                      A
 Frequencies --    466.2773               475.0520               494.2465
 Red. masses --      3.4294                 3.0265                 3.3918
 Frc consts  --      0.4393                 0.4024                 0.4882
 IR Inten    --      6.6851                 0.6117                 2.9901

                     22                     23                     24
                      A                      A                      A
 Frequencies --    529.5903               550.5839               576.0950
 Red. masses --      3.2215                 3.8277                 4.8902
 Frc consts  --      0.5323                 0.6836                 0.9562
 IR Inten    --      0.3282                 1.0286                 0.8699

                     25                     26                     27
                      A                      A                      A
 Frequencies --    598.0816               622.0112               636.1252
 Red. masses --      3.3264                 4.3983                 4.5082
 Frc consts  --      0.7010                 1.0026                 1.0748
 IR Inten    --      1.2116                12.2374                12.0466

                     28                     29                     30
                      A                      A                      A
 Frequencies --    706.3244               730.3538               757.0164
 Red. masses --      4.4483                 3.3498                 2.1220
 Frc consts  --      1.3075                 1.0528                 0.7165
 IR Inten    --      0.0306                 2.9580                13.7412

                     31                     32                     33
                      A                      A                      A
 Frequencies --    769.4040               773.9693               785.2387
 Red. masses --      1.6549                 1.7541                 1.7741
 Frc consts  --      0.5772                 0.6191                 0.6445
 IR Inten    --     24.0700                38.7386                42.7100

                     34                     35                     36
                      A                      A                      A
 Frequencies --    792.5484               811.8928               846.8965
 Red. masses --      1.7591                 3.1758                 1.8132
 Frc consts  --      0.6510                 1.2334                 0.7662
 IR Inten    --      3.3282                 0.9378                 9.6366

                     37                     38                     39
                      A                      A                      A
 Frequencies --    872.4976               886.7502               896.7009
 Red. masses --      1.4022                 1.9015                 1.9303
 Frc consts  --      0.6289                 0.8809                 0.9145
 IR Inten    --      1.3599                 6.4490                 7.9153

                     40                     41                     42
                      A                      A                      A
 Frequencies --    909.4403               931.3428               945.0915
 Red. masses --      1.8058                 2.3763                 1.4395
 Frc consts  --      0.8800                 1.2144                 0.7575
 IR Inten    --     12.9361                20.0522                10.0469

                     43                     44                     45
                      A                      A                      A
 Frequencies --    952.2112               977.3230               985.8485
 Red. masses --      1.3844                 1.2675                 1.2651
 Frc consts  --      0.7395                 0.7133                 0.7244
 IR Inten    --      4.5417                 0.2791                 0.5780

                     46                     47                     48
                      A                      A                      A
 Frequencies --    988.1480               993.9611              1033.0904
 Red. masses --      2.0940                 1.4345                 1.9052
 Frc consts  --      1.2047                 0.8350                 1.1980
 IR Inten    --      2.0129                17.1185                14.2505

                     49                     50                     51
                      A                      A                      A
 Frequencies --   1049.8688              1064.5019              1074.9838
 Red. masses --      2.4653                 3.0956                 2.1956
 Frc consts  --      1.6010                 2.0668                 1.4949
 IR Inten    --      3.3095                 2.5889                 7.6660

                     52                     53                     54
                      A                      A                      A
 Frequencies --   1088.0771              1094.5512              1136.1600
 Red. masses --      2.8396                 2.2856                 2.0274
 Frc consts  --      1.9807                 1.6133                 1.5420
 IR Inten    --      5.7586                17.4636                39.1660

                     55                     56                     57
                      A                      A                      A
 Frequencies --   1152.2326              1166.6401              1184.2740
 Red. masses --      1.8910                 1.6375                 1.2049
 Frc consts  --      1.4792                 1.3132                 0.9957
 IR Inten    --     36.8390                14.5310                20.5141

                     58                     59                     60
                      A                      A                      A
 Frequencies --   1189.8842              1194.7666              1203.3777
 Red. masses --      1.3927                 1.2658                 1.1634
 Frc consts  --      1.1617                 1.0646                 0.9926
 IR Inten    --     23.9877                 6.4491                 4.4227

                     61                     62                     63
                      A                      A                      A
 Frequencies --   1213.9455              1237.6035              1250.9285
 Red. masses --      1.6734                 2.6831                 1.4833
 Frc consts  --      1.4529                 2.4213                 1.3675
 IR Inten    --      2.3679                10.1482                31.4529

                     64                     65                     66
                      A                      A                      A
 Frequencies --   1265.6415              1270.3023              1292.1728
 Red. masses --      2.4760                 1.6382                 1.5646
 Frc consts  --      2.3368                 1.5576                 1.5392
 IR Inten    --     77.9494               104.5676                43.2423

                     67                     68                     69
                      A                      A                      A
 Frequencies --   1321.8113              1332.0230              1342.4628
 Red. masses --      1.6449                 1.7419                 3.1890
 Frc consts  --      1.6933                 1.8209                 3.3862
 IR Inten    --     15.5994                78.0189                14.3107

                     70                     71                     72
                      A                      A                      A
 Frequencies --   1351.5297              1363.3600              1382.0694
 Red. masses --      2.0109                 3.0665                 1.4822
 Frc consts  --      2.1641                 3.3583                 1.6680
 IR Inten    --      5.0008                 6.4010                 2.4429

                     73                     74                     75
                      A                      A                      A
 Frequencies --   1383.8482              1392.5164              1397.3690
 Red. masses --      1.2160                 1.3134                 1.4568
 Frc consts  --      1.3720                 1.5005                 1.6760
 IR Inten    --     22.1462                34.6112                 8.5071

                     76                     77                     78
                      A                      A                      A
 Frequencies --   1427.0401              1465.5680              1487.3702
 Red. masses --      1.3708                 1.3429                 1.5291
 Frc consts  --      1.6448                 1.6995                 1.9931
 IR Inten    --     31.8006                23.9835                24.7621

                     79                     80                     81
                      A                      A                      A
 Frequencies --   1493.8999              1501.9830              1503.6293
 Red. masses --      1.5478                 1.3097                 1.7551
 Frc consts  --      2.0352                 1.7408                 2.3380
 IR Inten    --     25.6579                 1.1727                54.5935

                     82                     83                     84
                      A                      A                      A
 Frequencies --   1508.9179              1521.8693              1533.1981
 Red. masses --      1.0898                 1.0867                 2.0535
 Frc consts  --      1.4619                 1.4829                 2.8441
 IR Inten    --     19.0606                13.5085               158.8786

                     85                     86                     87
                      A                      A                      A
 Frequencies --   1548.1246              1554.8976              1585.9016
 Red. masses --      2.3732                 1.1912                 1.1359
 Frc consts  --      3.3512                 1.6969                 1.6832
 IR Inten    --     28.5313                28.5004               186.1835

                     88                     89                     90
                      A                      A                      A
 Frequencies --   1632.4844              1641.7031              1655.6947
 Red. masses --      5.9686                 6.4287                 5.8131
 Frc consts  --      9.3717                10.2086                 9.3890
 IR Inten    --     21.1001                10.1012                24.5661

                     91                     92                     93
                      A                      A                      A
 Frequencies --   1662.0606              1665.6919              1695.6993
 Red. masses --      5.1823                 1.0533                 1.0431
 Frc consts  --      8.4347                 1.7218                 1.7672
 IR Inten    --     23.8729                77.4031               103.8199

                     94                     95                     96
                      A                      A                      A
 Frequencies --   3022.1771              3034.8917              3065.4969
 Red. masses --      1.0681                 1.0678                 1.0637
 Frc consts  --      5.7478                 5.7948                 5.8894
 IR Inten    --    109.6731                34.6430                22.4522

                     97                     98                     99
                      A                      A                      A
 Frequencies --   3083.4109              3087.6702              3115.7949
 Red. masses --      1.0911                 1.0626                 1.1036
 Frc consts  --      6.1117                 5.9685                 6.3127
 IR Inten    --     69.3775                13.2921                37.7613

                    100                    101                    102
                      A                      A                      A
 Frequencies --   3120.9671              3129.4124              3140.8612
 Red. masses --      1.0903                 1.0673                 1.0926
 Frc consts  --      6.2573                 6.1581                 6.3504
 IR Inten    --      6.7312                 6.3671                39.6777

                    103                    104                    105
                      A                      A                      A
 Frequencies --   3185.5562              3187.5041              3191.9697
 Red. masses --      1.1099                 1.0879                 1.0872
 Frc consts  --      6.6362                 6.5123                 6.5264
 IR Inten    --     12.5967                15.7303                17.2117

                    106                    107                    108
                      A                      A                      A
 Frequencies --   3202.3917              3209.0975              3211.9688
 Red. masses --      1.0869                 1.0874                 1.0918
 Frc consts  --      6.5672                 6.5977                 6.6363
 IR Inten    --      2.9367                 8.2482                40.5617

                    109                    110                    111
                      A                      A                      A
 Frequencies --   3219.9720              3224.7152              3232.0792
 Red. masses --      1.0919                 1.0971                 1.0965
 Frc consts  --      6.6702                 6.7218                 6.7485
 IR Inten    --     44.8532                38.1718                32.8327

                    112                    113                    114
                      A                      A                      A
 Frequencies --   3413.4453              3478.6719              3503.9025
 Red. masses --      1.0348                 1.0921                 1.0916
 Frc consts  --      7.1038                 7.7865                 7.8965
 IR Inten    --    101.5480               190.3456               171.1483

 - Thermochemistry -
 -------------------
 Temperature   298.150 Kelvin.  Pressure   1.00000 Atm.
 Atom     1 has atomic number  7 and mass  14.00307

 Molecular mass:   253.17047 amu.
 Principal axes and moments of inertia in atomic units:
                           1         2         3
     Eigenvalues --  4114.047705606.798808185.22670
           X            0.99748   0.07078   0.00401
           Y           -0.07082   0.99745   0.00867
           Z           -0.00338  -0.00894   0.99995
 This molecule is an asymmetric top.
 Rotational symmetry number  1.
 Warning -- assumption of classical behavior for rotation
           may cause significant error
 Rotational temperatures (Kelvin)      0.02105     0.01545     0.01058
 Rotational constants (GHZ):           0.43868     0.32188     0.22049
 Zero-point vibrational energy     933620.2 (Joules/Mol)
                                  223.14059 (Kcal/Mol)
 Warning -- explicit consideration of  25 degrees of freedom as
           vibrations may cause significant error
 Vibrational temperatures:     58.52    95.21   119.76   140.41   176.42
          (Kelvin)            211.69   246.06   257.86   335.83   386.55
                              395.16   443.65   459.61   486.61   522.06
                              527.36   615.23   637.41   670.87   683.49
                              711.11   761.96   792.17   828.87   860.51
                              894.94   915.24  1016.24  1050.82  1089.18
                             1107.00  1113.57  1129.78  1140.30  1168.13
                             1218.50  1255.33  1275.84  1290.15  1308.48
                             1339.99  1359.78  1370.02  1406.15  1418.42
                             1421.72  1430.09  1486.39  1510.53  1531.58
                             1546.66  1565.50  1574.81  1634.68  1657.81
                             1678.53  1703.91  1711.98  1719.00  1731.39
                             1746.60  1780.64  1799.81  1820.98  1827.68
                             1859.15  1901.79  1916.48  1931.50  1944.55
                             1961.57  1988.49  1991.05  2003.52  2010.50
                             2053.19  2108.63  2139.99  2149.39  2161.02
                             2163.39  2171.00  2189.63  2205.93  2227.41
                             2237.15  2281.76  2348.78  2362.04  2382.18
                             2391.33  2396.56  2439.73  4348.24  4366.53
                             4410.57  4436.34  4442.47  4482.93  4490.38
                             4502.53  4519.00  4583.30  4586.11  4592.53
                             4607.53  4617.18  4621.31  4632.82  4639.65
                             4650.24  4911.19  5005.03  5041.33

 Zero-point correction=                           0.355597 (Hartree/Particle)
 Thermal correction to Energy=                    0.371551
 Thermal correction to Enthalpy=                  0.372495
 Thermal correction to Gibbs Free Energy=         0.312635
 Sum of electronic and zero-point Energies=           -769.481731
 Sum of electronic and thermal Energies=              -769.465777
 Sum of electronic and thermal Enthalpies=            -769.464833
 Sum of electronic and thermal Free Energies=         -769.524692

                     E (Thermal)             CV                S
                      KCal/Mol        Cal/Mol-Kelvin    Cal/Mol-Kelvin
 Total                  233.152             65.560            125.985
 Electronic               0.000              0.000              0.000
 Translational            0.889              2.981             42.487
 Rotational               0.889              2.981             33.601
 Vibrational            231.374             59.598             49.898
 Vibration     1          0.594              1.981              5.226
 Vibration     2          0.598              1.970              4.264
 Vibration     3          0.600              1.961              3.813
 Vibration     4          0.603              1.951              3.502
 Vibration     5          0.610              1.930              3.059
 Vibration     6          0.617              1.906              2.709
 Vibration     7          0.626              1.878              2.424
 Vibration     8          0.629              1.868              2.337
 Vibration     9          0.654              1.790              1.853
 Vibration    10          0.673              1.731              1.605
 Vibration    11          0.677              1.720              1.567
 Vibration    12          0.698              1.658              1.371
 Vibration    13          0.705              1.636              1.313
 Vibration    14          0.719              1.599              1.221
 Vibration    15          0.737              1.549              1.110
 Vibration    16          0.739              1.541              1.094
 Vibration    17          0.789              1.410              0.867
 Vibration    18          0.803              1.376              0.817
 Vibration    19          0.824              1.325              0.748
 Vibration    20          0.832              1.305              0.724
 Vibration    21          0.850              1.263              0.673
 Vibration    22          0.885              1.185              0.588
 Vibration    23          0.906              1.138              0.543
 Vibration    24          0.933              1.083              0.493
 Vibration    25          0.956              1.036              0.453

 Optimization completed.
    -- Stationary point found.
 Normal termination of Gaussian 16 at Sun Jul 18 17:51:44 2021.

 ----------------------------------------------------------------------
 #p b3lyp/6-31G(d) scrf=(iefpcm,read,solvent=n-octanol) geom=allcheck g
 uess=read
 ----------------------------------------------------------------------

 Structure from the checkpoint file:  "SET_328_BBB20_conf1.geo_120_180_300.chk"
 --------------------------------------------
 SET_328_BBB20_conf1.geo_120_180_300 geometry
 --------------------------------------------
 Charge =  1 Multiplicity = 1

 SCF Done:  E(RB3LYP) =  -769.840166803     A.U. after    1 cycles
 Normal termination of Gaussian 16 at Sun Jul 18 17:52:49 2021.

 -----------------------------
 #p B3LYP/6-31G* geom=allcheck
 -----------------------------

 Structure from the checkpoint file:  "SET_328_BBB20_conf1.geo_120_180_300.chk"
 --------------------------------------------
 SET_328_BBB20_conf1.geo_120_180_300 geometry
 --------------------------------------------
 Charge =  1 Multiplicity = 1

 SCF Done:  E(RB3LYP) =  -769.714203989     A.U. after   15 cycles
 Normal termination of Gaussian 16 at Sun Jul 18 17:56:10 2021.
 Gaussian 16:  ES64L-G16RevA.03 25-Dec-2016

 --------------------------------------------------------
 #p mp2/aug-cc-pVDZ scf=tight maxdisk=180GB geom=allcheck
 --------------------------------------------------------

 Structure from the checkpoint file:  "SET_328_BBB20_conf1.geo_120_180_300.chk"
 --------------------------------------------
 SET_328_BBB20_conf1.geo_120_180_300 geometry
 --------------------------------------------
 Charge =  1 Multiplicity = 1

                         Standard orientation:
 ---------------------------------------------------------------------
 Center     Atomic      Atomic             Coordinates (Angstroms)
 Number     Number       Type             X           Y           Z
 ---------------------------------------------------------------------
      1          7           0       -4.264524   -2.179137   -0.142744
      2          1           0       -4.687989   -1.269754   -0.370256
      3          1           0       -5.039996   -2.843247   -0.013912
      4          6           0       -3.397898   -2.104335    1.090852
      5          1           0       -2.992417   -3.104744    1.241996
      6          1           0       -4.075695   -1.881259    1.914685
      7          6           0       -2.301249   -1.045001    0.998740
      8          1           0       -1.902521   -0.915184    2.010079
      9          1           0       -2.737159   -0.082738    0.714376
     10          6           0       -1.130275   -1.406034    0.072098
     11          1           0       -1.473526   -1.580931   -0.959753
     12          1           0       -0.691835   -2.344419    0.417248
     13          7           0       -0.079261   -0.392630    0.133048
     14          6           0        1.264084   -0.815414   -0.109960
     15          6           0        1.486866   -2.003062   -0.833209
     16          1           0        0.641479   -2.544185   -1.241474
     17          6           0        2.768144   -2.493370   -1.063633
     18          1           0        2.895921   -3.412993   -1.623492
     19          6           0        3.872416   -1.790740   -0.587991
     20          1           0        4.879914   -2.155497   -0.756487
     21          6           0        3.659690   -0.607520    0.112076
     22          1           0        4.510831   -0.051875    0.495340
     23          6           0        2.382208   -0.094054    0.371859
     24          6           0        2.346200    1.201897    1.164778
     25          1           0        2.793350    1.997505    0.553524
     26          1           0        3.013611    1.083106    2.024878
     27          6           0        0.982721    1.694201    1.660988
     28          1           0        1.135948    2.588111    2.272150
     29          1           0        0.530863    0.926765    2.298491
     30          6           0        0.057107    2.006165    0.520262
     31          6           0       -0.296607    3.312325    0.172480
     32          1           0        0.096661    4.137229    0.761073
     33          6           0       -1.156396    3.566334   -0.897623
     34          1           0       -1.429236    4.586862   -1.146077
     35          6           0       -1.665462    2.500543   -1.640600
     36          1           0       -2.330662    2.684200   -2.477151
     37          6           0       -1.306674    1.191504   -1.316751
     38          1           0       -1.687030    0.364187   -1.906939
     39          6           0       -0.446448    0.939374   -0.241663
     40          1           0       -3.754582   -2.495631   -0.976661
 ---------------------------------------------------------------------

 SCF Done:  E(RHF) =  -764.746021630     A.U. after   16 cycles
 E2 =    -0.2713060773D+01 EUMP2 =    -0.76745908240230D+03

 The electronic state is 1-A.
 Alpha  occ. eigenvalues --  -15.89614 -15.68112 -11.47657 -11.40217 -11.39290
 Alpha  occ. eigenvalues --  -11.36980 -11.36978 -11.33621 -11.33249 -11.33182
 Alpha  occ. eigenvalues --  -11.32789 -11.32638 -11.32613 -11.32046 -11.31783
 Alpha  occ. eigenvalues --  -11.31756 -11.31623 -11.31426 -11.31035  -1.50480
 Alpha  occ. eigenvalues --   -1.36990  -1.24473  -1.23619  -1.21188  -1.16630
 Alpha  occ. eigenvalues --   -1.11497  -1.11131  -1.10677  -1.07261  -1.03621
 Alpha  occ. eigenvalues --   -0.99068  -0.96788  -0.96089  -0.94769  -0.91656
 Alpha  occ. eigenvalues --   -0.90191  -0.87846  -0.86861  -0.84429  -0.79471
 Alpha  occ. eigenvalues --   -0.79102  -0.78180  -0.75768  -0.74289  -0.73554
 Alpha  occ. eigenvalues --   -0.72511  -0.71392  -0.70043  -0.68992  -0.68385
 Alpha  occ. eigenvalues --   -0.67942  -0.66285  -0.65676  -0.63815  -0.63447
 Alpha  occ. eigenvalues --   -0.62535  -0.61159  -0.59425  -0.59036  -0.57768
 Alpha  occ. eigenvalues --   -0.56574  -0.56261  -0.55444  -0.50948  -0.42461
 Alpha  occ. eigenvalues --   -0.41272  -0.40531  -0.38413
 Alpha virt. eigenvalues --   -0.11113  -0.07495  -0.07371  -0.05864  -0.03715
 Alpha virt. eigenvalues --   -0.03642  -0.03280  -0.02843  -0.02640  -0.02025
 Alpha virt. eigenvalues --   -0.01257  -0.01114  -0.00758  -0.00718  -0.00258

 Mulliken charges:
               1
     1  N   -0.484556
     2  H    0.248326
     3  H    0.167925
     4  C    1.236242
     5  H   -0.104979
     6  H   -0.117281
     7  C    0.448721
     8  H   -0.147116
     9  H   -0.243034
    10  C    0.617057
    11  H   -0.409064
    12  H   -0.522751
    13  N   -0.154529
    14  C    0.642205
    15  C    0.666376
    16  H   -0.889008
    17  C    0.406077
    18  H   -0.513823
    19  C    0.035193
    20  H   -0.461194
    21  C    0.671604
    22  H   -0.741555
    23  C   -0.159934
    24  C    0.345216
    25  H    0.075646
    26  H   -0.022645
    27  C    0.774286
    28  H   -0.153814
    29  H   -0.077926
    30  C    0.727369
    31  C    0.618858
    32  H   -0.607505
    33  C    0.638950
    34  H   -0.464812
    35  C    0.205048
    36  H   -0.539340
    37  C    1.448670
    38  H   -0.742476
    39  C   -1.650082
    40  H    0.233655
 Sum of Mulliken charges =   1.00000

 Dipole moment (field-independent basis, Debye):
    X=            -16.7143    Y=             -8.3186    Z=              0.5947  Tot=             18.6794
 Quadrupole moment (field-independent basis, Debye-Ang):
   XX=            -25.2760   YY=            -78.3504   ZZ=           -108.2488
   XY=             40.0967   XZ=              4.6787   YZ=              3.7938

 Normal termination of Gaussian 16 at Sun Jul 18 19:31:31 2021.
