 Gaussian 16, Revision A.03,

 ---------------------------------------------------------------
 #p b3lyp/6-31G(d) opt freq scrf=(iefpcm,read,solvent=n-octanol)
 ---------------------------------------------------------------

 ---------------------------------------------
 SET_328_BBB321_conf1.geo_180_150_045 geometry
 ---------------------------------------------
 Symbolic Z-matrix:
 Charge =  1 Multiplicity = 1

 SCF Done:  E(RB3LYP) =  -1212.55341309     A.U. after   17 cycles
 SCF Done:  E(RB3LYP) =  -1212.66453470     A.U. after   12 cycles
 SCF Done:  E(RB3LYP) =  -1212.71911899     A.U. after   13 cycles
 SCF Done:  E(RB3LYP) =  -1212.76172292     A.U. after   12 cycles
 SCF Done:  E(RB3LYP) =  -1212.78951428     A.U. after   13 cycles
 SCF Done:  E(RB3LYP) =  -1212.80553412     A.U. after   11 cycles
 SCF Done:  E(RB3LYP) =  -1212.81421034     A.U. after   12 cycles
 SCF Done:  E(RB3LYP) =  -1212.81764900     A.U. after   13 cycles
 SCF Done:  E(RB3LYP) =  -1212.81934855     A.U. after   11 cycles
 SCF Done:  E(RB3LYP) =  -1212.81913683     A.U. after   14 cycles
 SCF Done:  E(RB3LYP) =  -1212.82071378     A.U. after    8 cycles
 SCF Done:  E(RB3LYP) =  -1212.82071223     A.U. after    7 cycles
 SCF Done:  E(RB3LYP) =  -1212.82071257     A.U. after    7 cycles
 SCF Done:  E(RB3LYP) =  -1212.82071222     A.U. after    7 cycles
 SCF Done:  E(RB3LYP) =  -1212.82071229     A.U. after    7 cycles
 SCF Done:  E(RB3LYP) =  -1212.82071229     A.U. after    6 cycles
 Optimization completed.
    -- Stationary point found.
 Normal termination of Gaussian 16 at Sun Jul 18 18:30:08 2021.

 --------------------------------------------------------------------
 #P Geom=AllCheck Guess=TCheck SCRF=Check GenChk RB3LYP/6-31G(d) Freq
 --------------------------------------------------------------------

 Structure from the checkpoint file:  "SET_328_BBB321_conf1.geo_180_150_045.chk"
 ---------------------------------------------
 SET_328_BBB321_conf1.geo_180_150_045 geometry
 ---------------------------------------------
 Charge =  1 Multiplicity = 1

 SCF Done:  E(RB3LYP) =  -1212.82071229     A.U. after    1 cycles

  Exact polarizability: 336.826   3.212 267.167  -0.114   0.585  87.776
 Approx polarizability: 365.023   8.955 366.989   0.683   0.913 116.340

                      1                      2                      3
                      A                      A                      A
 Frequencies --      0.5717                20.7749                50.2526
 Red. masses --      2.2000                 1.5271                 5.7650
 Frc consts  --      0.0000                 0.0004                 0.0086
 IR Inten    --      4.8470                 0.3480                17.0101

                      4                      5                      6
                      A                      A                      A
 Frequencies --     70.6957                82.8911                89.2425
 Red. masses --      5.7147                 4.3829                 6.8576
 Frc consts  --      0.0168                 0.0177                 0.0322
 IR Inten    --      6.8165                 0.5928                 3.1844

                      7                      8                      9
                      A                      A                      A
 Frequencies --     94.2954               110.7481               132.7647
 Red. masses --      3.8475                 5.2989                 6.0788
 Frc consts  --      0.0202                 0.0383                 0.0631
 IR Inten    --      1.0180                10.9156                 6.0802

                     10                     11                     12
                      A                      A                      A
 Frequencies --    212.1614               220.3786               256.3890
 Red. masses --      5.0175                 1.2600                 4.6738
 Frc consts  --      0.1331                 0.0361                 0.1810
 IR Inten    --     11.5100               279.2352                 7.6773

                     13                     14                     15
                      A                      A                      A
 Frequencies --    264.3813               279.4840               285.0772
 Red. masses --      4.4816                 4.8785                 4.7725
 Frc consts  --      0.1846                 0.2245                 0.2285
 IR Inten    --      6.0077                12.0576                 8.1765

                     16                     17                     18
                      A                      A                      A
 Frequencies --    336.1351               343.5985               352.5943
 Red. masses --      6.2173                 4.5633                 7.6658
 Frc consts  --      0.4139                 0.3174                 0.5615
 IR Inten    --     21.5594                 4.1704                 3.5003

                     19                     20                     21
                      A                      A                      A
 Frequencies --    372.0480               392.0845               414.8791
 Red. masses --      1.2321                 3.9690                 1.1222
 Frc consts  --      0.1005                 0.3595                 0.1138
 IR Inten    --    112.4448                 1.0982               276.9844

                     22                     23                     24
                      A                      A                      A
 Frequencies --    452.8728               492.2450               531.1803
 Red. masses --      3.5448                 4.5507                 2.5358
 Frc consts  --      0.4283                 0.6497                 0.4216
 IR Inten    --      2.2016                 0.2169                54.4208

                     25                     26                     27
                      A                      A                      A
 Frequencies --    536.1120               554.7819               558.7806
 Red. masses --      3.3900                 1.7140                 2.4538
 Frc consts  --      0.5741                 0.3108                 0.4514
 IR Inten    --     66.6770               133.8396                 2.1420

                     28                     29                     30
                      A                      A                      A
 Frequencies --    582.8180               603.5083               621.9553
 Red. masses --      2.0163                 2.0604                 9.0093
 Frc consts  --      0.4035                 0.4421                 2.0533
 IR Inten    --     29.0141                49.3466                 1.8881

                     31                     32                     33
                      A                      A                      A
 Frequencies --    634.3682               672.5223               675.0367
 Red. masses --      2.1612                 1.7070                 2.5796
 Frc consts  --      0.5124                 0.4549                 0.6926
 IR Inten    --     10.5930                 4.8065                 9.5697

                     34                     35                     36
                      A                      A                      A
 Frequencies --    691.9664               696.2835               705.6112
 Red. masses --      6.4073                 3.7225                 2.4036
 Frc consts  --      1.8076                 1.0633                 0.7051
 IR Inten    --     18.2153                 0.9975                 2.2617

                     37                     38                     39
                      A                      A                      A
 Frequencies --    712.3375               747.9006               811.3901
 Red. masses --      2.1108                 1.8585                 1.7142
 Frc consts  --      0.6311                 0.6125                 0.6649
 IR Inten    --      2.2046                74.1522                31.5637

                     40                     41                     42
                      A                      A                      A
 Frequencies --    825.1670               870.9765               888.9615
 Red. masses --      6.3138                 6.3504                 4.4671
 Frc consts  --      2.5329                 2.8383                 2.0799
 IR Inten    --     33.2377                21.6689                12.2131

                     43                     44                     45
                      A                      A                      A
 Frequencies --    906.4358               937.9229               972.6072
 Red. masses --      1.4051                 1.4208                 5.8320
 Frc consts  --      0.6802                 0.7364                 3.2504
 IR Inten    --      0.6144                19.4014                 6.3618

                     46                     47                     48
                      A                      A                      A
 Frequencies --    983.7522               993.2411              1010.1255
 Red. masses --      1.2756                 3.1426                 4.8944
 Frc consts  --      0.7273                 1.8266                 2.9424
 IR Inten    --      1.3225                 2.1554                 7.3234

                     49                     50                     51
                      A                      A                      A
 Frequencies --   1016.8051              1039.2251              1068.3332
 Red. masses --      5.8999                 1.7429                 1.6856
 Frc consts  --      3.5939                 1.1090                 1.1335
 IR Inten    --      1.5218                52.6808                16.3247

                     52                     53                     54
                      A                      A                      A
 Frequencies --   1093.2424              1109.0873              1136.4551
 Red. masses --      1.6039                 1.4950                 1.6451
 Frc consts  --      1.1295                 1.0835                 1.2519
 IR Inten    --     15.0829                 7.0235                16.4909

                     55                     56                     57
                      A                      A                      A
 Frequencies --   1153.2813              1201.6750              1209.9430
 Red. masses --      1.6627                 1.3649                 1.2960
 Frc consts  --      1.3029                 1.1612                 1.1179
 IR Inten    --      2.1858                 2.5623                 3.6955

                     58                     59                     60
                      A                      A                      A
 Frequencies --   1253.0782              1269.0653              1293.7525
 Red. masses --      3.1532                 3.3562                 2.3224
 Frc consts  --      2.9172                 3.1847                 2.2903
 IR Inten    --    245.6469                57.9202               157.9240

                     61                     62                     63
                      A                      A                      A
 Frequencies --   1324.2028              1345.3775              1377.0971
 Red. masses --      1.6530                 4.8830                 3.9138
 Frc consts  --      1.7078                 5.2074                 4.3729
 IR Inten    --     44.2884                49.0391                31.0519

                     64                     65                     66
                      A                      A                      A
 Frequencies --   1428.4022              1479.5971              1498.7112
 Red. masses --      1.2532                 3.1337                 1.1025
 Frc consts  --      1.5065                 4.0420                 1.4590
 IR Inten    --     27.7211               383.9169                24.3793

                     67                     68                     69
                      A                      A                      A
 Frequencies --   1510.7921              1514.4934              1517.0527
 Red. masses --      1.7791                 1.1716                 2.1859
 Frc consts  --      2.3926                 1.5833                 2.9641
 IR Inten    --     27.7480                 2.9773               129.7236

                     70                     71                     72
                      A                      A                      A
 Frequencies --   1548.2173              1564.8478              1592.2262
 Red. masses --      2.3879                 3.5458                 2.4769
 Frc consts  --      3.3723                 5.1157                 3.6997
 IR Inten    --    513.3460                66.3005               276.1364

                     73                     74                     75
                      A                      A                      A
 Frequencies --   1601.2749              1636.2170              1649.4439
 Red. masses --      2.9321                 1.5172                 4.7888
 Frc consts  --      4.4296                 2.3932                 7.6763
 IR Inten    --     93.1008               485.3114               110.5202

                     76                     77                     78
                      A                      A                      A
 Frequencies --   1661.9639              1667.8703              1725.2329
 Red. masses --      1.5634                 4.8287                 3.3693
 Frc consts  --      2.5443                 7.9141                 5.9087
 IR Inten    --    781.2306                63.0930               824.8137

                     79                     80                     81
                      A                      A                      A
 Frequencies --   1769.6098              3088.4164              3157.8179
 Red. masses --      7.7822                 1.0364                 1.1016
 Frc consts  --     14.3585                 5.8245                 6.4722
 IR Inten    --    274.6604                 7.8481                13.4011

                     82                     83                     84
                      A                      A                      A
 Frequencies --   3178.2513              3201.4003              3219.4903
 Red. masses --      1.1036                 1.0877                 1.0931
 Frc consts  --      6.5681                 6.5683                 6.6758
 IR Inten    --     13.5828                12.0739                30.3011

                     85                     86                     87
                      A                      A                      A
 Frequencies --   3251.0791              3272.0719              3312.9047
 Red. masses --      1.0916                 1.0905                 1.0946
 Frc consts  --      6.7978                 6.8788                 7.0783
 IR Inten    --      8.0178                 8.1661                 9.5604

                     88                     89                     90
                      A                      A                      A
 Frequencies --   3477.8991              3561.0037              3572.8792
 Red. masses --      1.0555                 1.0519                 1.0737
 Frc consts  --      7.5220                 7.8590                 8.0754
 IR Inten    --    440.9771               180.2617               367.3283

                     91                     92                     93
                      A                      A                      A
 Frequencies --   3602.0032              3643.0656              3674.7973
 Red. masses --      1.0775                 1.0993                 1.1091
 Frc consts  --      8.2371                 8.5957                 8.8245
 IR Inten    --     61.4514               404.0547               227.1398

 - Thermochemistry -
 -------------------
 Temperature   298.150 Kelvin.  Pressure   1.00000 Atm.
 Atom     1 has atomic number  6 and mass  12.00000

 Molecular mass:   276.09191 amu.
 Principal axes and moments of inertia in atomic units:
                           1         2         3
     Eigenvalues --  2359.58521********************
           X            0.99998  -0.00605  -0.00041
           Y            0.00605   0.99998  -0.00218
           Z            0.00043   0.00218   1.00000
 This molecule is an asymmetric top.
 Rotational symmetry number  1.
 Warning -- assumption of classical behavior for rotation
           may cause significant error
 Rotational temperatures (Kelvin)      0.03671     0.00708     0.00604
 Rotational constants (GHZ):           0.76486     0.14753     0.12587
 Zero-point vibrational energy     684993.4 (Joules/Mol)
                                  163.71736 (Kcal/Mol)
 Warning -- explicit consideration of  29 degrees of freedom as
           vibrations may cause significant error
 Vibrational temperatures:      0.82    29.89    72.30   101.72   119.26
          (Kelvin)            128.40   135.67   159.34   191.02   305.25
                              317.08   368.89   380.39   402.12   410.16
                              483.62   494.36   507.30   535.29   564.12
                              596.92   651.58   708.23   764.25   771.35
                              798.21   803.96   838.55   868.31   894.85
                              912.71   967.61   971.23   995.59  1001.80
                             1015.22  1024.89  1076.06  1167.41  1187.23
                             1253.14  1279.02  1304.16  1349.46  1399.36
                             1415.40  1429.05  1453.35  1462.96  1495.21
                             1537.09  1572.93  1595.73  1635.11  1659.31
                             1728.94  1740.84  1802.90  1825.90  1861.42
                             1905.23  1935.70  1981.34  2055.15  2128.81
                             2156.31  2173.69  2179.02  2182.70  2227.54
                             2251.47  2290.86  2303.88  2354.15  2373.18
                             2391.20  2399.69  2482.23  2546.07  4443.54
                             4543.40  4572.79  4606.10  4632.13  4677.58
                             4707.78  4766.53  5003.92  5123.49  5140.58
                             5182.48  5241.56  5287.21

 Zero-point correction=                           0.260900 (Hartree/Particle)
 Thermal correction to Energy=                    0.279342
 Thermal correction to Enthalpy=                  0.280286
 Thermal correction to Gibbs Free Energy=         0.208925
 Sum of electronic and zero-point Energies=          -1212.559812
 Sum of electronic and thermal Energies=             -1212.541371
 Sum of electronic and thermal Enthalpies=           -1212.540426
 Sum of electronic and thermal Free Energies=        -1212.611787

                     E (Thermal)             CV                S
                      KCal/Mol        Cal/Mol-Kelvin    Cal/Mol-Kelvin
 Total                  175.290             69.474            150.191
 Electronic               0.000              0.000              0.000
 Translational            0.889              2.981             42.745
 Rotational               0.889              2.981             34.381
 Vibrational            173.512             63.512             73.065
 Vibration     1          0.592              1.987             13.698
 Vibration     2          0.593              1.986              6.559
 Vibration     3          0.595              1.977              4.807
 Vibration     4          0.598              1.968              4.134
 Vibration     5          0.600              1.961              3.821
 Vibration     6          0.602              1.957              3.677
 Vibration     7          0.603              1.953              3.569
 Vibration     8          0.607              1.941              3.256
 Vibration     9          0.613              1.921              2.906
 Vibration    10          0.643              1.822              2.025
 Vibration    11          0.647              1.810              1.956
 Vibration    12          0.666              1.752              1.686
 Vibration    13          0.671              1.738              1.633
 Vibration    14          0.680              1.712              1.537
 Vibration    15          0.683              1.701              1.503
 Vibration    16          0.717              1.603              1.230
 Vibration    17          0.722              1.588              1.195
 Vibration    18          0.729              1.570              1.155
 Vibration    19          0.744              1.530              1.071
 Vibration    20          0.760              1.487              0.992
 Vibration    21          0.778              1.438              0.910
 Vibration    22          0.811              1.355              0.787
 Vibration    23          0.848              1.267              0.678
 Vibration    24          0.886              1.181              0.585
 Vibration    25          0.891              1.170              0.574
 Vibration    26          0.910              1.129              0.534
 Vibration    27          0.914              1.121              0.526
 Vibration    28          0.940              1.068              0.480
 Vibration    29          0.962              1.024              0.444

                           ! Non-Optimized Parameters !
 Normal termination of Gaussian 16 at Sun Jul 18 19:01:37 2021.

 ----------------------------------------------------------------------
 #p b3lyp/6-31G(d) scrf=(iefpcm,read,solvent=n-octanol) geom=allcheck g
 uess=read
 ----------------------------------------------------------------------

 Structure from the checkpoint file:  "SET_328_BBB321_conf1.geo_180_150_045.chk"
 ---------------------------------------------
 SET_328_BBB321_conf1.geo_180_150_045 geometry
 ---------------------------------------------
 Charge =  1 Multiplicity = 1

 SCF Done:  E(RB3LYP) =  -1212.82071229     A.U. after    1 cycles
 Normal termination of Gaussian 16 at Sun Jul 18 19:02:29 2021.

 -----------------------------
 #p B3LYP/6-31G* geom=allcheck
 -----------------------------

 Structure from the checkpoint file:  "SET_328_BBB321_conf1.geo_180_150_045.chk"
 ---------------------------------------------
 SET_328_BBB321_conf1.geo_180_150_045 geometry
 ---------------------------------------------
 Charge =  1 Multiplicity = 1

 SCF Done:  E(RB3LYP) =  -1212.69874615     A.U. after   17 cycles
 Normal termination of Gaussian 16 at Sun Jul 18 19:04:56 2021.
 Gaussian 16:  ES64L-G16RevA.03 25-Dec-2016

 --------------------------------------------------------
 #p mp2/aug-cc-pVDZ scf=tight maxdisk=180GB geom=allcheck
 --------------------------------------------------------

 Structure from the checkpoint file:  "SET_328_BBB321_conf1.geo_180_150_045.chk"
 ---------------------------------------------
 SET_328_BBB321_conf1.geo_180_150_045 geometry
 ---------------------------------------------
 Charge =  1 Multiplicity = 1

                         Standard orientation:
 ---------------------------------------------------------------------
 Center     Atomic      Atomic             Coordinates (Angstroms)
 Number     Number       Type             X           Y           Z
 ---------------------------------------------------------------------
      1          6           0        6.287576   -0.853823    0.537876
      2          1           0        6.827185    0.033354    0.200721
      3          1           0        6.667511   -1.729518    0.009720
      4          1           0        6.487516   -0.997181    1.603174
      5          6           0        4.788268   -0.771801    0.326240
      6          8           0        4.074265   -1.768260    0.374820
      7          7           0        4.314666    0.498951    0.105825
      8          1           0        5.008232    1.237936    0.091013
      9          6           0        2.987226    0.928867   -0.082040
     10          6           0        2.777282    2.304234   -0.278562
     11          6           0        1.489171    2.794315   -0.458411
     12          6           0        0.395003    1.932642   -0.447831
     13          1           0       -0.607510    2.311932   -0.598158
     14          1           0        1.339105    3.857659   -0.610035
     15          1           0        3.623744    2.983843   -0.284335
     16          6           0        1.890860    0.059308   -0.070112
     17          1           0        2.062277   -0.993113    0.103837
     18          6           0        0.594572    0.560131   -0.257122
     19          6           0       -0.556732   -0.359207   -0.258222
     20          7           0       -1.836119    0.149306   -0.070548
     21          6           0       -0.509464   -1.713429   -0.441622
     22          1           0        0.348302   -2.337403   -0.633662
     23         16           0       -2.099056   -2.408548   -0.373555
     24          6           0       -2.731303   -0.793140   -0.100353
     25          7           0       -4.093514   -0.597203    0.080507
     26          6           0       -4.712969    0.587710    0.366539
     27          7           0       -4.017689    1.706863    0.482725
     28          1           0       -3.006925    1.681995    0.359208
     29          1           0       -4.490833    2.575990    0.703251
     30          7           0       -6.034522    0.569191    0.512059
     31          1           0       -6.553503   -0.301089    0.472691
     32          1           0       -6.532965    1.418534    0.752394
     33          1           0       -4.708055   -1.404697    0.016247
 ---------------------------------------------------------------------

 SCF Done:  E(RHF) =  -1207.16101982     A.U. after   18 cycles
 E2 =    -0.2816083189D+01 EUMP2 =    -0.12099771030040D+04

 The electronic state is 1-A.
 Alpha  occ. eigenvalues --  -92.12922 -20.60981 -15.81163 -15.79758 -15.78315
 Alpha  occ. eigenvalues --  -15.71533 -15.69159 -11.60343 -11.50858 -11.44396
 Alpha  occ. eigenvalues --  -11.40531 -11.38487 -11.38304 -11.35148 -11.33519
 Alpha  occ. eigenvalues --  -11.33128 -11.33008 -11.32480 -11.31454  -9.13082
 Alpha  occ. eigenvalues --   -6.81244  -6.81137  -6.80945  -1.54789  -1.46341
 Alpha  occ. eigenvalues --   -1.44985  -1.39175  -1.38379  -1.33982  -1.24456
 Alpha  occ. eigenvalues --   -1.19833  -1.16660  -1.11667  -1.10638  -1.06411
 Alpha  occ. eigenvalues --   -1.05058  -0.99115  -0.98402  -0.95464  -0.93171
 Alpha  occ. eigenvalues --   -0.91303  -0.87711  -0.86234  -0.85677  -0.85113
 Alpha  occ. eigenvalues --   -0.82683  -0.81540  -0.79949  -0.76803  -0.75721
 Alpha  occ. eigenvalues --   -0.72336  -0.71863  -0.70416  -0.69835  -0.69610
 Alpha  occ. eigenvalues --   -0.67861  -0.66313  -0.64082  -0.63521  -0.63426
 Alpha  occ. eigenvalues --   -0.62256  -0.61335  -0.61073  -0.59157  -0.58161
 Alpha  occ. eigenvalues --   -0.57601  -0.53001  -0.51825  -0.49942  -0.47172
 Alpha  occ. eigenvalues --   -0.40795  -0.39069
 Alpha virt. eigenvalues --   -0.08898  -0.06866  -0.05232  -0.04351  -0.03458
 Alpha virt. eigenvalues --   -0.03406  -0.03045  -0.02684  -0.02069  -0.01612
 Alpha virt. eigenvalues --   -0.01400  -0.00409   0.00097   0.00255   0.00579

 Mulliken charges:
               1
     1  C    0.565614
     2  H   -0.144202
     3  H    0.017803
     4  H    0.064400
     5  C    0.439417
     6  O   -0.872986
     7  N   -0.634131
     8  H   -0.045197
     9  C   -0.471345
    10  C    1.116275
    11  C    0.042656
    12  C    0.959821
    13  H   -0.683258
    14  H   -0.480309
    15  H   -0.712444
    16  C    0.967238
    17  H   -0.701883
    18  C    1.733662
    19  C   -0.627631
    20  N   -0.658759
    21  C    0.395411
    22  H   -0.525271
    23  S    0.471903
    24  C    0.380629
    25  N   -0.668072
    26  C    1.354418
    27  N   -0.174621
    28  H    0.137751
    29  H    0.004258
    30  N   -0.263516
    31  H    0.000493
    32  H    0.027820
    33  H   -0.015945
 Sum of Mulliken charges =   1.00000

 Dipole moment (field-independent basis, Debye):
    X=            -16.1911    Y=              4.3219    Z=              1.4434  Tot=             16.8201
 Quadrupole moment (field-independent basis, Debye-Ang):
   XX=             41.0207   YY=            -96.0962   ZZ=           -122.3519
   XY=              1.7610   XZ=             -9.9827   YZ=              4.5408

 Normal termination of Gaussian 16 at Sun Jul 18 20:12:22 2021.
