 Gaussian 16, Revision A.03,

 ---------------------------------------------------------------
 #p b3lyp/6-31G(d) opt freq scrf=(iefpcm,read,solvent=n-octanol)
 ---------------------------------------------------------------

 --------------------------------------------
 SET_328_BBB29_conf1.geo_120_180_180 geometry
 --------------------------------------------
 Symbolic Z-matrix:
 Charge =  1 Multiplicity = 1

 SCF Done:  E(RB3LYP) =  -1548.95202146     A.U. after   14 cycles
 SCF Done:  E(RB3LYP) =  -1548.98576762     A.U. after   12 cycles
 SCF Done:  E(RB3LYP) =  -1548.97608181     A.U. after   12 cycles
 SCF Done:  E(RB3LYP) =  -1549.00031457     A.U. after   11 cycles
 SCF Done:  E(RB3LYP) =  -1549.00140274     A.U. after   11 cycles
 SCF Done:  E(RB3LYP) =  -1549.00148281     A.U. after   11 cycles
 SCF Done:  E(RB3LYP) =  -1549.00172277     A.U. after   10 cycles
 SCF Done:  E(RB3LYP) =  -1549.00174803     A.U. after   10 cycles
 SCF Done:  E(RB3LYP) =  -1549.00183789     A.U. after    9 cycles
 SCF Done:  E(RB3LYP) =  -1549.00189810     A.U. after   10 cycles
 SCF Done:  E(RB3LYP) =  -1549.00384284     A.U. after   10 cycles
 SCF Done:  E(RB3LYP) =  -1549.00387391     A.U. after    8 cycles
 SCF Done:  E(RB3LYP) =  -1549.00387230     A.U. after    7 cycles
 SCF Done:  E(RB3LYP) =  -1549.00381748     A.U. after    8 cycles
 SCF Done:  E(RB3LYP) =  -1549.00382899     A.U. after    7 cycles
 SCF Done:  E(RB3LYP) =  -1549.00381402     A.U. after    7 cycles
 Optimization completed.
    -- Stationary point found.
 Normal termination of Gaussian 16 at Sun Jul 18 17:40:52 2021.

 --------------------------------------------------------------------
 #P Geom=AllCheck Guess=TCheck SCRF=Check GenChk RB3LYP/6-31G(d) Freq
 --------------------------------------------------------------------

 Structure from the checkpoint file:  "SET_328_BBB29_conf1.geo_120_180_180.chk"
 --------------------------------------------
 SET_328_BBB29_conf1.geo_120_180_180 geometry
 --------------------------------------------
 Charge =  1 Multiplicity = 1

 SCF Done:  E(RB3LYP) =  -1549.00381402     A.U. after    1 cycles

  Exact polarizability: 317.981 -40.709 254.282 -34.615 -38.996 162.836
 Approx polarizability: 366.705 -43.684 321.889 -44.716 -62.347 220.965

                      1                      2                      3
                      A                      A                      A
 Frequencies --     47.0007                66.9636                79.5732
 Red. masses --      8.0446                 4.9745                 4.6875
 Frc consts  --      0.0105                 0.0131                 0.0175
 IR Inten    --      0.9630                12.0152                16.4192

                      4                      5                      6
                      A                      A                      A
 Frequencies --     99.7702               128.7707               145.0463
 Red. masses --      6.1272                 3.6264                 2.0562
 Frc consts  --      0.0359                 0.0354                 0.0255
 IR Inten    --      1.1288                 1.3634                 0.5421

                      7                      8                      9
                      A                      A                      A
 Frequencies --    170.1584               197.6929               215.6370
 Red. masses --      5.1196                 3.5467                 4.2273
 Frc consts  --      0.0873                 0.0817                 0.1158
 IR Inten    --      7.4916                 6.0377                 2.3603

                     10                     11                     12
                      A                      A                      A
 Frequencies --    228.9227               259.2190               278.7055
 Red. masses --      2.4608                 5.3370                 1.4696
 Frc consts  --      0.0760                 0.2113                 0.0673
 IR Inten    --      7.5128                10.2455                 1.3204

                     13                     14                     15
                      A                      A                      A
 Frequencies --    291.2130               308.5244               313.1877
 Red. masses --      2.9064                 6.0261                 4.3065
 Frc consts  --      0.1452                 0.3380                 0.2489
 IR Inten    --      1.0712                 7.7638                 2.5679

                     16                     17                     18
                      A                      A                      A
 Frequencies --    331.5462               368.0028               391.9195
 Red. masses --      4.9087                 6.8639                 6.2509
 Frc consts  --      0.3179                 0.5477                 0.5657
 IR Inten    --      1.5525                 9.4859                 3.7434

                     19                     20                     21
                      A                      A                      A
 Frequencies --    432.6937               449.9313               459.9191
 Red. masses --      4.6372                 3.9653                 3.9312
 Frc consts  --      0.5115                 0.4730                 0.4899
 IR Inten    --      5.5289                 4.9273                 6.2825

                     22                     23                     24
                      A                      A                      A
 Frequencies --    482.0684               518.4352               543.4927
 Red. masses --      3.9649                 4.6523                 5.1040
 Frc consts  --      0.5429                 0.7367                 0.8883
 IR Inten    --     12.8888                 4.8708                 5.3820

                     25                     26                     27
                      A                      A                      A
 Frequencies --    550.9674               590.7358               626.4304
 Red. masses --      5.0996                 6.2937                 6.0951
 Frc consts  --      0.9121                 1.2940                 1.4092
 IR Inten    --      2.7364                 6.0879                 2.3045

                     28                     29                     30
                      A                      A                      A
 Frequencies --    641.0633               694.9247               713.9614
 Red. masses --      5.5393                 6.2961                 5.2578
 Frc consts  --      1.3412                 1.7914                 1.5791
 IR Inten    --      7.8318                 6.3315                 0.4555

                     31                     32                     33
                      A                      A                      A
 Frequencies --    736.5686               748.2474               767.3895
 Red. masses --      5.6933                 2.6348                 1.4849
 Frc consts  --      1.8199                 0.8691                 0.5152
 IR Inten    --      2.2079                16.9132                50.5269

                     34                     35                     36
                      A                      A                      A
 Frequencies --    780.1476               802.1032               819.1931
 Red. masses --      1.1588                 5.0205                 1.3370
 Frc consts  --      0.4155                 1.9031                 0.5286
 IR Inten    --     16.5901                 8.7155                33.0834

                     37                     38                     39
                      A                      A                      A
 Frequencies --    868.1785               872.7759               888.8742
 Red. masses --      1.3650                 1.3910                 1.3761
 Frc consts  --      0.6062                 0.6243                 0.6406
 IR Inten    --      7.1021                10.9218                24.3640

                     40                     41                     42
                      A                      A                      A
 Frequencies --    936.5209               942.8198               951.3805
 Red. masses --      3.0070                 1.3476                 1.2995
 Frc consts  --      1.5539                 0.7058                 0.6930
 IR Inten    --    116.0368                 3.6553                 1.1177

                     43                     44                     45
                      A                      A                      A
 Frequencies --    966.3911               983.2912              1007.0307
 Red. masses --      2.6151                 1.2613                 1.2336
 Frc consts  --      1.4389                 0.7185                 0.7371
 IR Inten    --     44.0829                 0.6549                12.9365

                     46                     47                     48
                      A                      A                      A
 Frequencies --   1031.6775              1066.9684              1069.2660
 Red. masses --      3.0791                 5.0231                 5.2428
 Frc consts  --      1.9309                 3.3692                 3.5317
 IR Inten    --      3.8061                26.6191                10.2098

                     49                     50                     51
                      A                      A                      A
 Frequencies --   1076.9956              1083.6882              1125.2800
 Red. masses --      2.8294                 2.4745                 2.2214
 Frc consts  --      1.9336                 1.7122                 1.6573
 IR Inten    --      5.5351                 6.5082                54.8316

                     52                     53                     54
                      A                      A                      A
 Frequencies --   1132.8095              1157.6949              1168.8991
 Red. masses --      3.5605                 1.5440                 1.4398
 Frc consts  --      2.6920                 1.2193                 1.1591
 IR Inten    --     19.7256                30.6365                 8.8703

                     55                     56                     57
                      A                      A                      A
 Frequencies --   1178.1728              1189.5195              1198.7279
 Red. masses --      1.7402                 1.5831                 1.1898
 Frc consts  --      1.4232                 1.3198                 1.0073
 IR Inten    --     43.6706                31.8603                 5.2846

                     58                     59                     60
                      A                      A                      A
 Frequencies --   1266.6351              1289.2932              1308.6040
 Red. masses --      1.8854                 2.0801                 1.3824
 Frc consts  --      1.7822                 2.0373                 1.3947
 IR Inten    --    116.2388               112.6062                44.9082

                     61                     62                     63
                      A                      A                      A
 Frequencies --   1317.0944              1333.7892              1339.7664
 Red. masses --      1.8790                 2.2394                 4.2138
 Frc consts  --      1.9205                 2.3472                 4.4564
 IR Inten    --     46.4480                82.5309                 0.3803

                     64                     65                     66
                      A                      A                      A
 Frequencies --   1355.2163              1363.7623              1366.9775
 Red. masses --      3.4398                 1.6303                 1.0941
 Frc consts  --      3.7223                 1.7864                 1.2045
 IR Inten    --      0.8677                 4.2621                 7.2681

                     67                     68                     69
                      A                      A                      A
 Frequencies --   1384.6292              1436.5919              1444.7880
 Red. masses --      1.4004                 1.6725                 2.1283
 Frc consts  --      1.5818                 2.0337                 2.6175
 IR Inten    --     25.1879                47.9242                35.1999

                     70                     71                     72
                      A                      A                      A
 Frequencies --   1460.3046              1491.9354              1503.2795
 Red. masses --      1.4681                 2.2490                 2.3846
 Frc consts  --      1.8446                 2.9494                 3.1750
 IR Inten    --     65.0790                 4.4924               416.0782

                     73                     74                     75
                      A                      A                      A
 Frequencies --   1520.5918              1533.6568              1534.8840
 Red. masses --      1.0915                 1.1209                 2.5160
 Frc consts  --      1.4870                 1.5533                 3.4923
 IR Inten    --      2.6352                 5.0260                21.5088

                     76                     77                     78
                      A                      A                      A
 Frequencies --   1555.8282              1578.3330              1613.9123
 Red. masses --      1.1073                 1.1545                 6.6011
 Frc consts  --      1.5792                 1.6946                10.1303
 IR Inten    --      2.4478               194.8910                33.3200

                     79                     80                     81
                      A                      A                      A
 Frequencies --   1625.7897              1635.3357              1651.5697
 Red. masses --      6.1888                 6.0965                 1.0414
 Frc consts  --      9.6380                 9.6060                 1.6736
 IR Inten    --     90.5471                 4.9407                69.5410

                     82                     83                     84
                      A                      A                      A
 Frequencies --   1653.4898              1663.6661              3033.5907
 Red. masses --      6.2695                 1.0334                 1.0725
 Frc consts  --     10.0993                 1.6853                 5.8149
 IR Inten    --     42.5914                83.3386                57.9316

                     85                     86                     87
                      A                      A                      A
 Frequencies --   3086.2081              3126.7117              3134.3038
 Red. masses --      1.0627                 1.0656                 1.0925
 Frc consts  --      5.9636                 6.1382                 6.3235
 IR Inten    --     16.4689                14.6759                 4.0700

                     88                     89                     90
                      A                      A                      A
 Frequencies --   3159.8454              3184.8464              3214.3862
 Red. masses --      1.0925                 1.1101                 1.0866
 Frc consts  --      6.4266                 6.6341                 6.6150
 IR Inten    --     18.0793                16.7987                 1.3422

                     91                     92                     93
                      A                      A                      A
 Frequencies --   3220.7670              3224.1020              3235.6337
 Red. masses --      1.0897                 1.0897                 1.0923
 Frc consts  --      6.6601                 6.6741                 6.7378
 IR Inten    --     10.0505                 5.2927                33.2998

                     94                     95                     96
                      A                      A                      A
 Frequencies --   3242.6739              3246.4459              3251.1154
 Red. masses --      1.0953                 1.0906                 1.0940
 Frc consts  --      6.7856                 6.7721                 6.8132
 IR Inten    --     23.6702                 2.8224                 2.8785

                     97                     98                     99
                      A                      A                      A
 Frequencies --   3423.8378              3494.0020              3510.1292
 Red. masses --      1.0349                 1.0919                 1.0925
 Frc consts  --      7.1478                 7.8539                 7.9305
 IR Inten    --    115.7528               183.5703               182.7180

 - Thermochemistry -
 -------------------
 Temperature   298.150 Kelvin.  Pressure   1.00000 Atm.
 Atom     1 has atomic number  7 and mass  14.00307

 Molecular mass:   291.07227 amu.
 Principal axes and moments of inertia in atomic units:
                           1         2         3
     Eigenvalues --  5069.061758066.48673**********
           X            0.99710   0.07586  -0.00574
           Y           -0.07575   0.99698   0.01726
           Z            0.00704  -0.01677   0.99983
 This molecule is an asymmetric top.
 Rotational symmetry number  1.
 Warning -- assumption of classical behavior for rotation
           may cause significant error
 Rotational temperatures (Kelvin)      0.01709     0.01074     0.00755
 Rotational constants (GHZ):           0.35603     0.22373     0.15726
 Zero-point vibrational energy     760797.5 (Joules/Mol)
                                  181.83497 (Kcal/Mol)
 Warning -- explicit consideration of  26 degrees of freedom as
           vibrations may cause significant error
 Vibrational temperatures:     67.62    96.35   114.49   143.55   185.27
          (Kelvin)            208.69   244.82   284.44   310.25   329.37
                              372.96   401.00   418.99   443.90   450.61
                              477.02   529.47   563.88   622.55   647.35
                              661.72   693.59   745.91   781.96   792.72
                              849.94   901.29   922.35   999.84  1027.23
                             1059.76  1076.56  1104.10  1122.46  1154.05
                             1178.64  1249.12  1255.73  1278.89  1347.44
                             1356.51  1368.82  1390.42  1414.74  1448.89
                             1484.35  1535.13  1538.44  1549.56  1559.19
                             1619.03  1629.86  1665.66  1681.79  1695.13
                             1711.45  1724.70  1822.41  1855.01  1882.79
                             1895.01  1919.03  1927.63  1949.85  1962.15
                             1966.78  1992.17  2066.94  2078.73  2101.05
                             2146.56  2162.88  2187.79  2206.59  2208.36
                             2238.49  2270.87  2322.06  2339.15  2352.88
                             2376.24  2379.00  2393.64  4364.66  4440.37
                             4498.64  4509.56  4546.31  4582.28  4624.78
                             4633.97  4638.76  4655.36  4665.48  4670.91
                             4677.63  4926.14  5027.09  5050.29

 Zero-point correction=                           0.289772 (Hartree/Particle)
 Thermal correction to Energy=                    0.306215
 Thermal correction to Enthalpy=                  0.307160
 Thermal correction to Gibbs Free Energy=         0.245813
 Sum of electronic and zero-point Energies=          -1548.714042
 Sum of electronic and thermal Energies=             -1548.697599
 Sum of electronic and thermal Enthalpies=           -1548.696654
 Sum of electronic and thermal Free Energies=        -1548.758001

                     E (Thermal)             CV                S
                      KCal/Mol        Cal/Mol-Kelvin    Cal/Mol-Kelvin
 Total                  192.153             65.376            129.114
 Electronic               0.000              0.000              0.000
 Translational            0.889              2.981             42.903
 Rotational               0.889              2.981             34.505
 Vibrational            190.376             59.414             51.706
 Vibration     1          0.595              1.979              4.940
 Vibration     2          0.598              1.970              4.241
 Vibration     3          0.600              1.963              3.901
 Vibration     4          0.604              1.949              3.459
 Vibration     5          0.611              1.924              2.964
 Vibration     6          0.616              1.908              2.736
 Vibration     7          0.625              1.879              2.434
 Vibration     8          0.637              1.843              2.154
 Vibration     9          0.645              1.817              1.995
 Vibration    10          0.652              1.797              1.887
 Vibration    11          0.668              1.747              1.667
 Vibration    12          0.679              1.713              1.542
 Vibration    13          0.687              1.690              1.467
 Vibration    14          0.698              1.657              1.370
 Vibration    15          0.701              1.649              1.345
 Vibration    16          0.714              1.613              1.253
 Vibration    17          0.741              1.538              1.088
 Vibration    18          0.759              1.487              0.993
 Vibration    19          0.794              1.399              0.850
 Vibration    20          0.809              1.361              0.796
 Vibration    21          0.818              1.339              0.766
 Vibration    22          0.838              1.290              0.705
 Vibration    23          0.873              1.209              0.614
 Vibration    24          0.899              1.154              0.558
 Vibration    25          0.906              1.138              0.542
 Vibration    26          0.948              1.052              0.466

 Optimization completed.
    -- Stationary point found.
 Normal termination of Gaussian 16 at Sun Jul 18 18:23:53 2021.

 ----------------------------------------------------------------------
 #p b3lyp/6-31G(d) scrf=(iefpcm,read,solvent=n-octanol) geom=allcheck g
 uess=read
 ----------------------------------------------------------------------

 Structure from the checkpoint file:  "SET_328_BBB29_conf1.geo_120_180_180.chk"
 --------------------------------------------
 SET_328_BBB29_conf1.geo_120_180_180 geometry
 --------------------------------------------
 Charge =  1 Multiplicity = 1

 SCF Done:  E(RB3LYP) =  -1549.00664158     A.U. after    1 cycles
 Normal termination of Gaussian 16 at Sun Jul 18 18:24:51 2021.

 -----------------------------
 #p B3LYP/6-31G* geom=allcheck
 -----------------------------

 Structure from the checkpoint file:  "SET_328_BBB29_conf1.geo_120_180_180.chk"
 --------------------------------------------
 SET_328_BBB29_conf1.geo_120_180_180 geometry
 --------------------------------------------
 Charge =  1 Multiplicity = 1

 SCF Done:  E(RB3LYP) =  -1548.87328319     A.U. after   15 cycles
 Normal termination of Gaussian 16 at Sun Jul 18 18:27:36 2021.
 Gaussian 16:  ES64L-G16RevA.03 25-Dec-2016

 --------------------------------------------------------
 #p mp2/aug-cc-pVDZ scf=tight maxdisk=180GB geom=allcheck
 --------------------------------------------------------

 Structure from the checkpoint file:  "SET_328_BBB29_conf1.geo_120_180_180.chk"
 --------------------------------------------
 SET_328_BBB29_conf1.geo_120_180_180 geometry
 --------------------------------------------
 Charge =  1 Multiplicity = 1

                         Standard orientation:
 ---------------------------------------------------------------------
 Center     Atomic      Atomic             Coordinates (Angstroms)
 Number     Number       Type             X           Y           Z
 ---------------------------------------------------------------------
      1          7           0        3.676222    3.836717    1.074510
      2          1           0        3.971282    4.806143    0.897023
      3          1           0        4.494371    3.238812    0.899483
      4          6           0        2.501139    3.445159    0.224687
      5          1           0        2.801520    3.597704   -0.811505
      6          1           0        1.700685    4.148147    0.459056
      7          6           0        2.086633    2.005673    0.491882
      8          1           0        1.868919    1.865300    1.555256
      9          1           0        2.901536    1.324640    0.230116
     10          6           0        0.830037    1.644027   -0.307824
     11          1           0        0.984770    1.824803   -1.380375
     12          1           0        0.019370    2.298374    0.010846
     13          7           0        0.410914    0.272064   -0.040103
     14          6           0       -0.966662   -0.018171    0.082288
     15          6           0       -1.957468    0.827185   -0.437598
     16          1           0       -1.695629    1.717729   -0.994159
     17          6           0       -3.301377    0.513934   -0.244035
     18         17           0       -4.521585    1.608594   -0.877788
     19          6           0       -3.702194   -0.642804    0.413516
     20          1           0       -4.752451   -0.867682    0.546043
     21          6           0       -2.715328   -1.507895    0.885672
     22          1           0       -2.998516   -2.426193    1.388122
     23          6           0       -1.364789   -1.197879    0.741219
     24         16           0       -0.118364   -2.247952    1.455026
     25          6           0        1.127788   -2.045891    0.200908
     26          6           0        1.285195   -0.785323   -0.399263
     27          6           0        2.306695   -0.616407   -1.341724
     28          1           0        2.431251    0.338596   -1.837009
     29          6           0        3.164086   -1.670615   -1.656092
     30          1           0        3.953774   -1.512202   -2.381678
     31          6           0        2.998432   -2.918778   -1.058907
     32          1           0        3.659012   -3.740787   -1.307272
     33          6           0        1.964153   -3.107354   -0.140600
     34          1           0        1.808383   -4.074532    0.324870
     35          1           0        3.464507    3.771646    2.077542
 ---------------------------------------------------------------------

 SCF Done:  E(RHF) =  -1543.12075750     A.U. after   18 cycles
 E2 =    -0.2702001276D+01 EUMP2 =    -0.15458227587749D+04

 The electronic state is 1-A.
 Alpha  occ. eigenvalues -- -104.91307 -92.05503 -15.90399 -15.70424 -11.48409
 Alpha  occ. eigenvalues --  -11.41203 -11.40308 -11.39437 -11.39341 -11.39096
 Alpha  occ. eigenvalues --  -11.36417 -11.36209 -11.34239 -11.34174 -11.34130
 Alpha  occ. eigenvalues --  -11.33983 -11.33956 -11.33102 -11.33023 -10.63869
 Alpha  occ. eigenvalues --   -9.05643  -8.10648  -8.10314  -8.10301  -6.73842
 Alpha  occ. eigenvalues --   -6.73712  -6.73493  -1.51421  -1.39503  -1.27295
 Alpha  occ. eigenvalues --   -1.25591  -1.23380  -1.20616  -1.15563  -1.13021
 Alpha  occ. eigenvalues --   -1.11821  -1.09486  -1.07905  -1.01742  -0.99885
 Alpha  occ. eigenvalues --   -0.97156  -0.95173  -0.94500  -0.91971  -0.91191
 Alpha  occ. eigenvalues --   -0.86502  -0.85317  -0.82635  -0.80151  -0.79305
 Alpha  occ. eigenvalues --   -0.75970  -0.75391  -0.74270  -0.73227  -0.72144
 Alpha  occ. eigenvalues --   -0.71084  -0.69369  -0.69059  -0.68095  -0.66563
 Alpha  occ. eigenvalues --   -0.65707  -0.63962  -0.63228  -0.61841  -0.61418
 Alpha  occ. eigenvalues --   -0.60760  -0.58018  -0.56798  -0.54314  -0.53201
 Alpha  occ. eigenvalues --   -0.52945  -0.49387  -0.43814  -0.42472  -0.40878
 Alpha  occ. eigenvalues --   -0.36998
 Alpha virt. eigenvalues --   -0.11591  -0.07938  -0.07851  -0.06532  -0.04036
 Alpha virt. eigenvalues --   -0.03771  -0.03230  -0.03075  -0.02697  -0.01611
 Alpha virt. eigenvalues --   -0.01454  -0.01009  -0.00805  -0.00114   0.00341

 Mulliken charges:
               1
     1  N   -0.523024
     2  H    0.168097
     3  H    0.241960
     4  C    1.300945
     5  H   -0.120901
     6  H   -0.119815
     7  C    0.317780
     8  H   -0.145646
     9  H   -0.216504
    10  C    0.697578
    11  H   -0.202120
    12  H   -0.517994
    13  N   -0.745203
    14  C   -1.083234
    15  C    1.554657
    16  H   -0.644723
    17  C   -0.697908
    18  Cl  -0.346676
    19  C    0.791064
    20  H   -0.432898
    21  C    0.794883
    22  H   -0.532918
    23  C    0.501460
    24  S    0.343222
    25  C    0.486509
    26  C   -0.438333
    27  C    1.271054
    28  H   -0.755538
    29  C    0.219613
    30  H   -0.515057
    31  C    0.744838
    32  H   -0.434431
    33  C    0.305859
    34  H   -0.493809
    35  H    0.227216
 Sum of Mulliken charges =   1.00000

 Dipole moment (field-independent basis, Debye):
    X=             16.4625    Y=             15.4678    Z=              3.3534  Tot=             22.8366
 Quadrupole moment (field-independent basis, Debye-Ang):
   XX=            -59.6355   YY=            -49.3600   ZZ=           -120.7139
   XY=             61.7358   XZ=              7.5861   YZ=             15.1781

 Normal termination of Gaussian 16 at Sun Jul 18 19:45:36 2021.
