 Gaussian 16, Revision A.03,

 ---------------------------------------------------------------
 #p b3lyp/6-31G(d) opt freq scrf=(iefpcm,read,solvent=n-octanol)
 ---------------------------------------------------------------

 --------------------------------------------
 SET_328_BBB20_conf1.geo_060_180_060 geometry
 --------------------------------------------
 Symbolic Z-matrix:
 Charge =  1 Multiplicity = 1

 SCF Done:  E(RB3LYP) =  -769.791582140     A.U. after   13 cycles
 SCF Done:  E(RB3LYP) =  -769.820228944     A.U. after   11 cycles
 SCF Done:  E(RB3LYP) =  -769.808878806     A.U. after   12 cycles
 SCF Done:  E(RB3LYP) =  -769.833086955     A.U. after   11 cycles
 SCF Done:  E(RB3LYP) =  -769.834766831     A.U. after   11 cycles
 SCF Done:  E(RB3LYP) =  -769.834878711     A.U. after   10 cycles
 SCF Done:  E(RB3LYP) =  -769.835021785     A.U. after   11 cycles
 SCF Done:  E(RB3LYP) =  -769.836217648     A.U. after   11 cycles
 SCF Done:  E(RB3LYP) =  -769.836224348     A.U. after   11 cycles
 SCF Done:  E(RB3LYP) =  -769.836797695     A.U. after   10 cycles
 SCF Done:  E(RB3LYP) =  -769.837079982     A.U. after    9 cycles
 SCF Done:  E(RB3LYP) =  -769.837022323     A.U. after    9 cycles
 SCF Done:  E(RB3LYP) =  -769.837027028     A.U. after    7 cycles
 SCF Done:  E(RB3LYP) =  -769.837078247     A.U. after    9 cycles
 SCF Done:  E(RB3LYP) =  -769.837081432     A.U. after    8 cycles
 SCF Done:  E(RB3LYP) =  -769.837026622     A.U. after    9 cycles
 Optimization completed.
    -- Stationary point found.
 Normal termination of Gaussian 16 at Sun Jul 18 15:59:36 2021.

 --------------------------------------------------------------------
 #P Geom=AllCheck Guess=TCheck SCRF=Check GenChk RB3LYP/6-31G(d) Freq
 --------------------------------------------------------------------

 Structure from the checkpoint file:  "SET_328_BBB20_conf1.geo_060_180_060.chk"
 --------------------------------------------
 SET_328_BBB20_conf1.geo_060_180_060 geometry
 --------------------------------------------
 Charge =  1 Multiplicity = 1

 SCF Done:  E(RB3LYP) =  -769.837026622     A.U. after    1 cycles

  Exact polarizability: 252.660  20.841 259.828  31.390 -26.292 169.102
 Approx polarizability: 293.231  14.426 316.702  43.845 -38.339 221.446

                      1                      2                      3
                      A                      A                      A
 Frequencies --     36.9821                68.5580                80.7207
 Red. masses --      4.2359                 4.0526                 4.1173
 Frc consts  --      0.0034                 0.0112                 0.0158
 IR Inten    --      1.1358                20.3279                 6.6136

                      4                      5                      6
                      A                      A                      A
 Frequencies --     92.5162               131.8238               146.3699
 Red. masses --      3.7026                 2.7106                 3.3208
 Frc consts  --      0.0187                 0.0278                 0.0419
 IR Inten    --      2.5688                 5.4727                 8.9237

                      7                      8                      9
                      A                      A                      A
 Frequencies --    170.2493               179.2914               236.6274
 Red. masses --      2.8467                 2.7704                 2.3274
 Frc consts  --      0.0486                 0.0525                 0.0768
 IR Inten    --      3.4547                13.6357                 1.7555

                     10                     11                     12
                      A                      A                      A
 Frequencies --    268.9364               278.5610               309.0157
 Red. masses --      2.9090                 3.2076                 3.0681
 Frc consts  --      0.1240                 0.1466                 0.1726
 IR Inten    --      3.7249                 5.4223                 1.9882

                     13                     14                     15
                      A                      A                      A
 Frequencies --    322.0371               342.2700               367.0457
 Red. masses --      3.4997                 3.1326                 3.4132
 Frc consts  --      0.2138                 0.2162                 0.2709
 IR Inten    --      0.2362                 3.6068                 4.1950

                     16                     17                     18
                      A                      A                      A
 Frequencies --    372.0540               424.7356               442.6190
 Red. masses --      1.1700                 4.4816                 2.8323
 Frc consts  --      0.0954                 0.4763                 0.3269
 IR Inten    --      1.2476                10.0575                 2.1310

                     19                     20                     21
                      A                      A                      A
 Frequencies --    465.9914               476.0648               495.3094
 Red. masses --      3.4248                 3.0518                 3.3380
 Frc consts  --      0.4382                 0.4075                 0.4825
 IR Inten    --      6.4820                 1.2200                 2.5100

                     22                     23                     24
                      A                      A                      A
 Frequencies --    528.7687               549.9628               575.2736
 Red. masses --      3.1427                 3.8668                 4.8829
 Frc consts  --      0.5177                 0.6891                 0.9521
 IR Inten    --      0.4098                 0.9719                 1.0096

                     25                     26                     27
                      A                      A                      A
 Frequencies --    597.0283               621.4823               637.0901
 Red. masses --      3.3491                 4.3976                 4.5540
 Frc consts  --      0.7034                 1.0008                 1.0890
 IR Inten    --      1.2335                11.5866                11.7265

                     28                     29                     30
                      A                      A                      A
 Frequencies --    705.6997               728.2293               757.1360
 Red. masses --      4.4584                 3.4322                 2.5735
 Frc consts  --      1.3082                 1.0724                 0.8692
 IR Inten    --      0.0523                 2.4368                10.9134

                     31                     32                     33
                      A                      A                      A
 Frequencies --    766.7587               775.1574               785.3094
 Red. masses --      1.4705                 1.6685                 2.0048
 Frc consts  --      0.5094                 0.5907                 0.7284
 IR Inten    --     22.3849                43.2547                40.9871

                     34                     35                     36
                      A                      A                      A
 Frequencies --    795.7694               812.2657               852.2033
 Red. masses --      1.6230                 3.1330                 1.8458
 Frc consts  --      0.6055                 1.2179                 0.7898
 IR Inten    --      9.2200                 0.3260                 8.9236

                     37                     38                     39
                      A                      A                      A
 Frequencies --    870.5476               885.1614               892.5074
 Red. masses --      1.4008                 1.5564                 2.5209
 Frc consts  --      0.6255                 0.7185                 1.1831
 IR Inten    --      1.6879                 1.6060                12.2879

                     40                     41                     42
                      A                      A                      A
 Frequencies --    913.7974               930.4128               945.2277
 Red. masses --      1.7652                 2.4053                 1.4526
 Frc consts  --      0.8684                 1.2268                 0.7647
 IR Inten    --     12.1211                23.1937                 8.4947

                     43                     44                     45
                      A                      A                      A
 Frequencies --    949.3576               980.8982               984.8598
 Red. masses --      1.3798                 1.2652                 1.2633
 Frc consts  --      0.7327                 0.7172                 0.7219
 IR Inten    --      5.0554                 0.3676                 1.2412

                     46                     47                     48
                      A                      A                      A
 Frequencies --    988.4654               994.9167              1035.9358
 Red. masses --      2.0643                 1.3918                 1.9293
 Frc consts  --      1.1883                 0.8117                 1.2198
 IR Inten    --      2.2857                18.1256                13.3725

                     49                     50                     51
                      A                      A                      A
 Frequencies --   1051.6555              1067.0068              1081.3413
 Red. masses --      2.5129                 3.4476                 2.1344
 Frc consts  --      1.6375                 2.3126                 1.4705
 IR Inten    --      2.6323                 3.4901                 7.6696

                     52                     53                     54
                      A                      A                      A
 Frequencies --   1089.7174              1093.5981              1138.0037
 Red. masses --      2.5757                 2.2922                 2.1174
 Frc consts  --      1.8021                 1.6152                 1.6156
 IR Inten    --      8.1867                16.0008                43.9051

                     55                     56                     57
                      A                      A                      A
 Frequencies --   1153.9100              1169.3542              1186.5194
 Red. masses --      1.8290                 1.6380                 1.4371
 Frc consts  --      1.4349                 1.3196                 1.1920
 IR Inten    --     28.8840                17.8784                45.6858

                     58                     59                     60
                      A                      A                      A
 Frequencies --   1192.4232              1196.7355              1204.2850
 Red. masses --      1.2012                 1.2038                 1.1762
 Frc consts  --      1.0063                 1.0158                 1.0051
 IR Inten    --      1.5488                 6.3237                 6.3461

                     61                     62                     63
                      A                      A                      A
 Frequencies --   1215.3054              1238.1155              1251.3408
 Red. masses --      1.7118                 2.5749                 1.6687
 Frc consts  --      1.4896                 2.3256                 1.5395
 IR Inten    --      1.7265                 9.1388                46.3559

                     64                     65                     66
                      A                      A                      A
 Frequencies --   1263.3041              1268.6406              1291.8770
 Red. masses --      2.1209                 1.5980                 1.5607
 Frc consts  --      1.9943                 1.5153                 1.5347
 IR Inten    --     61.6903                99.2435                47.0947

                     67                     68                     69
                      A                      A                      A
 Frequencies --   1325.9883              1330.9265              1343.5214
 Red. masses --      1.6023                 1.7789                 2.7888
 Frc consts  --      1.6598                 1.8566                 2.9659
 IR Inten    --     11.2275                83.1496                20.1479

                     70                     71                     72
                      A                      A                      A
 Frequencies --   1351.3368              1363.6993              1381.1355
 Red. masses --      2.1020                 2.8071                 1.5146
 Frc consts  --      2.2616                 3.0757                 1.7023
 IR Inten    --      4.1508                 2.9168                 2.9497

                     73                     74                     75
                      A                      A                      A
 Frequencies --   1383.1851              1386.8998              1398.5215
 Red. masses --      1.2384                 1.3623                 1.4831
 Frc consts  --      1.3960                 1.5438                 1.7090
 IR Inten    --     13.5247                41.4449                14.1383

                     76                     77                     78
                      A                      A                      A
 Frequencies --   1429.5527              1458.6212              1486.8398
 Red. masses --      1.3742                 1.3890                 1.3162
 Frc consts  --      1.6547                 1.7412                 1.7143
 IR Inten    --     29.3492                21.5585                15.8123

                     79                     80                     81
                      A                      A                      A
 Frequencies --   1493.7272              1502.4545              1504.9511
 Red. masses --      1.7552                 1.2298                 2.0550
 Frc consts  --      2.3073                 1.6356                 2.7423
 IR Inten    --     37.1973                 3.3438                49.9907

                     82                     83                     84
                      A                      A                      A
 Frequencies --   1513.0408              1523.4541              1533.7910
 Red. masses --      1.0894                 1.0900                 1.9940
 Frc consts  --      1.4694                 1.4906                 2.7637
 IR Inten    --     27.6624                14.2901               165.4746

                     85                     86                     87
                      A                      A                      A
 Frequencies --   1548.8015              1560.0119              1591.1606
 Red. masses --      2.5493                 1.1620                 1.1320
 Frc consts  --      3.6029                 1.6661                 1.6886
 IR Inten    --     24.3168                25.4926               187.0317

                     88                     89                     90
                      A                      A                      A
 Frequencies --   1634.9675              1644.1088              1657.3609
 Red. masses --      5.9488                 6.3926                 5.6895
 Frc consts  --      9.3691                10.1810                 9.2078
 IR Inten    --     21.0295                10.0279                28.6839

                     91                     92                     93
                      A                      A                      A
 Frequencies --   1663.3468              1672.9475              1696.9884
 Red. masses --      5.6593                 1.0402                 1.0413
 Frc consts  --      9.2253                 1.7153                 1.7668
 IR Inten    --     13.0487                80.7940               107.1812

                     94                     95                     96
                      A                      A                      A
 Frequencies --   3016.9922              3042.6341              3063.1965
 Red. masses --      1.0688                 1.0642                 1.0661
 Frc consts  --      5.7317                 5.8048                 5.8937
 IR Inten    --    101.7930                38.6039                19.2833

                     97                     98                     99
                      A                      A                      A
 Frequencies --   3081.1266              3089.2049              3115.1010
 Red. masses --      1.0935                 1.0633                 1.1025
 Frc consts  --      6.1162                 5.9786                 6.3034
 IR Inten    --     66.4159                12.6784                40.2415

                    100                    101                    102
                      A                      A                      A
 Frequencies --   3120.1981              3124.7365              3142.4325
 Red. masses --      1.0714                 1.0812                 1.0962
 Frc consts  --      6.1456                 6.2201                 6.3780
 IR Inten    --     13.8270                 2.7091                35.6020

                    103                    104                    105
                      A                      A                      A
 Frequencies --   3177.4217              3189.3022              3192.3147
 Red. masses --      1.1100                 1.0882                 1.0861
 Frc consts  --      6.6026                 6.5218                 6.5213
 IR Inten    --     13.0031                17.8057                 9.4943

                    106                    107                    108
                      A                      A                      A
 Frequencies --   3201.1044              3206.6354              3217.5327
 Red. masses --      1.0892                 1.0866                 1.0917
 Frc consts  --      6.5761                 6.5827                 6.6587
 IR Inten    --     23.2502                 3.8334                40.1923

                    109                    110                    111
                      A                      A                      A
 Frequencies --   3219.1964              3228.5288              3237.2303
 Red. masses --      1.0955                 1.0972                 1.0920
 Frc consts  --      6.6887                 6.7382                 6.7426
 IR Inten    --     49.2678                36.4310                21.5203

                    112                    113                    114
                      A                      A                      A
 Frequencies --   3418.3668              3491.7151              3499.0924
 Red. masses --      1.0342                 1.0919                 1.0925
 Frc consts  --      7.1203                 7.8433                 7.8811
 IR Inten    --     86.4586               184.2632               191.2014

 - Thermochemistry -
 -------------------
 Temperature   298.150 Kelvin.  Pressure   1.00000 Atm.
 Atom     1 has atomic number  7 and mass  14.00307

 Molecular mass:   253.17047 amu.
 Principal axes and moments of inertia in atomic units:
                           1         2         3
     Eigenvalues --  4082.614045610.840888206.66615
           X            0.99756  -0.06973   0.00387
           Y            0.06976   0.99753  -0.00859
           Z           -0.00326   0.00884   0.99996
 This molecule is an asymmetric top.
 Rotational symmetry number  1.
 Warning -- assumption of classical behavior for rotation
           may cause significant error
 Rotational temperatures (Kelvin)      0.02122     0.01544     0.01055
 Rotational constants (GHZ):           0.44206     0.32165     0.21991
 Zero-point vibrational energy     934143.1 (Joules/Mol)
                                  223.26557 (Kcal/Mol)
 Warning -- explicit consideration of  25 degrees of freedom as
           vibrations may cause significant error
 Vibrational temperatures:     53.21    98.64   116.14   133.11   189.67
          (Kelvin)            210.59   244.95   257.96   340.45   386.94
                              400.79   444.60   463.34   492.45   528.10
                              535.30   611.10   636.83   670.46   684.95
                              712.64   760.78   791.27   827.69   858.99
                              894.17   916.63  1015.34  1047.76  1089.35
                             1103.19  1115.28  1129.89  1144.93  1168.67
                             1226.13  1252.52  1273.55  1284.12  1314.75
                             1338.66  1359.97  1365.91  1411.29  1416.99
                             1422.18  1431.46  1490.48  1513.10  1535.18
                             1555.81  1567.86  1573.44  1637.33  1660.22
                             1682.44  1707.14  1715.63  1721.84  1732.70
                             1748.55  1781.37  1800.40  1817.61  1825.29
                             1858.72  1907.80  1914.91  1933.03  1944.27
                             1962.06  1987.15  1990.09  1995.44  2012.16
                             2056.81  2098.63  2139.23  2149.14  2161.70
                             2165.29  2176.93  2191.91  2206.78  2228.38
                             2244.51  2289.33  2352.35  2365.51  2384.57
                             2393.19  2407.00  2441.59  4340.78  4377.67
                             4407.26  4433.05  4444.68  4481.94  4489.27
                             4495.80  4521.26  4571.60  4588.69  4593.03
                             4605.68  4613.63  4629.31  4631.71  4645.13
                             4657.65  4918.27  5023.80  5034.41

 Zero-point correction=                           0.355796 (Hartree/Particle)
 Thermal correction to Energy=                    0.371725
 Thermal correction to Enthalpy=                  0.372669
 Thermal correction to Gibbs Free Energy=         0.312793
 Sum of electronic and zero-point Energies=           -769.481230
 Sum of electronic and thermal Energies=              -769.465301
 Sum of electronic and thermal Enthalpies=            -769.464357
 Sum of electronic and thermal Free Energies=         -769.524233

                     E (Thermal)             CV                S
                      KCal/Mol        Cal/Mol-Kelvin    Cal/Mol-Kelvin
 Total                  233.261             65.491            126.020
 Electronic               0.000              0.000              0.000
 Translational            0.889              2.981             42.487
 Rotational               0.889              2.981             33.596
 Vibrational            231.484             59.529             49.937
 Vibration     1          0.594              1.982              5.415
 Vibration     2          0.598              1.969              4.194
 Vibration     3          0.600              1.962              3.873
 Vibration     4          0.602              1.955              3.606
 Vibration     5          0.612              1.922              2.919
 Vibration     6          0.617              1.907              2.719
 Vibration     7          0.625              1.879              2.433
 Vibration     8          0.629              1.868              2.336
 Vibration     9          0.656              1.785              1.828
 Vibration    10          0.673              1.730              1.603
 Vibration    11          0.679              1.713              1.542
 Vibration    12          0.698              1.657              1.368
 Vibration    13          0.707              1.631              1.300
 Vibration    14          0.721              1.591              1.202
 Vibration    15          0.740              1.540              1.092
 Vibration    16          0.744              1.530              1.071
 Vibration    17          0.787              1.416              0.876
 Vibration    18          0.802              1.377              0.818
 Vibration    19          0.823              1.325              0.749
 Vibration    20          0.833              1.303              0.721
 Vibration    21          0.851              1.260              0.670
 Vibration    22          0.884              1.186              0.590
 Vibration    23          0.905              1.140              0.544
 Vibration    24          0.932              1.085              0.494
 Vibration    25          0.955              1.038              0.455

                           ! Non-Optimized Parameters !
 Normal termination of Gaussian 16 at Sun Jul 18 16:57:52 2021.

 ----------------------------------------------------------------------
 #p b3lyp/6-31G(d) scrf=(iefpcm,read,solvent=n-octanol) geom=allcheck g
 uess=read
 ----------------------------------------------------------------------

 Structure from the checkpoint file:  "SET_328_BBB20_conf1.geo_060_180_060.chk"
 --------------------------------------------
 SET_328_BBB20_conf1.geo_060_180_060 geometry
 --------------------------------------------
 Charge =  1 Multiplicity = 1

 SCF Done:  E(RB3LYP) =  -769.839865409     A.U. after    1 cycles
 Normal termination of Gaussian 16 at Sun Jul 18 16:59:07 2021.

 -----------------------------
 #p B3LYP/6-31G* geom=allcheck
 -----------------------------

 Structure from the checkpoint file:  "SET_328_BBB20_conf1.geo_060_180_060.chk"
 --------------------------------------------
 SET_328_BBB20_conf1.geo_060_180_060 geometry
 --------------------------------------------
 Charge =  1 Multiplicity = 1

 SCF Done:  E(RB3LYP) =  -769.713976757     A.U. after   15 cycles
 Normal termination of Gaussian 16 at Sun Jul 18 17:03:06 2021.
 Gaussian 16:  ES64L-G16RevA.03 25-Dec-2016

 --------------------------------------------------------
 #p mp2/aug-cc-pVDZ scf=tight maxdisk=180GB geom=allcheck
 --------------------------------------------------------

 Structure from the checkpoint file:  "SET_328_BBB20_conf1.geo_060_180_060.chk"
 --------------------------------------------
 SET_328_BBB20_conf1.geo_060_180_060 geometry
 --------------------------------------------
 Charge =  1 Multiplicity = 1

                         Standard orientation:
 ---------------------------------------------------------------------
 Center     Atomic      Atomic             Coordinates (Angstroms)
 Number     Number       Type             X           Y           Z
 ---------------------------------------------------------------------
      1          7           0       -4.238196    2.200951   -0.143661
      2          1           0       -4.662696    1.294124   -0.378794
      3          1           0       -3.722119    2.521268   -0.972966
      4          6           0       -3.379541    2.117246    1.094805
      5          1           0       -4.062354    1.886939    1.913398
      6          1           0       -2.973103    3.116848    1.256723
      7          6           0       -2.286213    1.058425    0.999405
      8          1           0       -2.720516    0.100151    0.701432
      9          1           0       -1.894861    0.915563    2.011780
     10          6           0       -1.109285    1.419918    0.085606
     11          1           0       -0.667447    2.353057    0.439817
     12          1           0       -1.442454    1.601879   -0.948613
     13          7           0       -0.067878    0.395080    0.149582
     14          6           0       -0.457344   -0.929575   -0.229399
     15          6           0       -1.348812   -1.155343   -1.283897
     16          1           0       -1.729909   -0.314900   -1.852745
     17          6           0       -1.735338   -2.452431   -1.616204
     18          1           0       -2.424508   -2.613412   -2.438162
     19          6           0       -1.225771   -3.535951   -0.902183
     20          1           0       -1.520813   -4.547922   -1.157635
     21          6           0       -0.336502   -3.309716    0.149025
     22          1           0        0.057550   -4.148889    0.716872
     23          6           0        0.047282   -2.014522    0.506717
     24          6           0        1.003066   -1.738300    1.632583
     25          1           0        1.162274   -2.650236    2.214427
     26          1           0        0.573683   -0.988250    2.305828
     27          6           0        2.360107   -1.245787    1.121180
     28          1           0        2.786796   -2.031037    0.484641
     29          1           0        3.045348   -1.153005    1.971163
     30          6           0        2.395097    0.065832    0.354765
     31          6           0        3.674033    0.574045    0.090377
     32          1           0        4.523842    0.004380    0.454361
     33          6           0        3.889045    1.767657   -0.590469
     34          1           0        4.897991    2.127490   -0.763139
     35          6           0        2.786532    2.487680   -1.041103
     36          1           0        2.916562    3.417642   -1.585500
     37          6           0        1.504114    2.004079   -0.805020
     38          1           0        0.657402    2.558627   -1.188516
     39          6           0        1.278466    0.805477   -0.101128
     40          1           0       -5.011760    2.865066   -0.016174
 ---------------------------------------------------------------------

 SCF Done:  E(RHF) =  -764.745638227     A.U. after   16 cycles
 E2 =    -0.2713291490D+01 EUMP2 =    -0.76745892971684D+03

 The electronic state is 1-A.
 Alpha  occ. eigenvalues --  -15.89604 -15.68231 -11.47661 -11.40198 -11.39208
 Alpha  occ. eigenvalues --  -11.37066 -11.37016 -11.33633 -11.33289 -11.33242
 Alpha  occ. eigenvalues --  -11.32831 -11.32648 -11.32625 -11.32035 -11.31798
 Alpha  occ. eigenvalues --  -11.31779 -11.31625 -11.31433 -11.31025  -1.50505
 Alpha  occ. eigenvalues --   -1.37047  -1.24551  -1.23678  -1.21240  -1.16672
 Alpha  occ. eigenvalues --   -1.11553  -1.11196  -1.10708  -1.07317  -1.03660
 Alpha  occ. eigenvalues --   -0.99091  -0.96837  -0.96095  -0.94808  -0.91694
 Alpha  occ. eigenvalues --   -0.90223  -0.87936  -0.86901  -0.84446  -0.79518
 Alpha  occ. eigenvalues --   -0.79119  -0.78228  -0.75791  -0.74311  -0.73583
 Alpha  occ. eigenvalues --   -0.72609  -0.71429  -0.70088  -0.69018  -0.68400
 Alpha  occ. eigenvalues --   -0.67948  -0.66313  -0.65720  -0.63831  -0.63460
 Alpha  occ. eigenvalues --   -0.62550  -0.61201  -0.59500  -0.59087  -0.57786
 Alpha  occ. eigenvalues --   -0.56583  -0.56317  -0.55456  -0.51113  -0.42540
 Alpha  occ. eigenvalues --   -0.41331  -0.40545  -0.38378
 Alpha virt. eigenvalues --   -0.11110  -0.07493  -0.07369  -0.05858  -0.03722
 Alpha virt. eigenvalues --   -0.03645  -0.03274  -0.02843  -0.02643  -0.02035
 Alpha virt. eigenvalues --   -0.01250  -0.01118  -0.00748  -0.00732  -0.00283

 Mulliken charges:
               1
     1  N   -0.482472
     2  H    0.248760
     3  H    0.236181
     4  C    1.236338
     5  H   -0.112469
     6  H   -0.099658
     7  C    0.470350
     8  H   -0.239113
     9  H   -0.148511
    10  C    0.586654
    11  H   -0.538142
    12  H   -0.395998
    13  N   -0.225715
    14  C   -1.598330
    15  C    1.455065
    16  H   -0.745979
    17  C    0.202038
    18  H   -0.541933
    19  C    0.649875
    20  H   -0.464599
    21  C    0.619110
    22  H   -0.609322
    23  C    0.730542
    24  C    0.763906
    25  H   -0.147465
    26  H   -0.076045
    27  C    0.341877
    28  H    0.073454
    29  H   -0.025412
    30  C   -0.160315
    31  C    0.675112
    32  H   -0.743434
    33  C    0.032547
    34  H   -0.460627
    35  C    0.392875
    36  H   -0.512107
    37  C    0.702370
    38  H   -0.894773
    39  C    0.641077
    40  H    0.164286
 Sum of Mulliken charges =   1.00000

 Dipole moment (field-independent basis, Debye):
    X=            -16.5948    Y=              8.3770    Z=              0.5906  Tot=             18.5987
 Quadrupole moment (field-independent basis, Debye-Ang):
   XX=            -26.0159   YY=            -77.7537   ZZ=           -108.6285
   XY=            -40.2876   XZ=              4.6065   YZ=             -3.7801

 Normal termination of Gaussian 16 at Sun Jul 18 19:33:59 2021.
