 Gaussian 16, Revision A.03,

 ---------------------------------------------------------------
 #p b3lyp/6-31G(d) opt freq scrf=(iefpcm,read,solvent=n-octanol)
 ---------------------------------------------------------------

 ---------------------------------------------
 SET_328_BBB301_conf1.geo_165_300_090 geometry
 ---------------------------------------------
 Symbolic Z-matrix:
 Charge =  1 Multiplicity = 1

 SCF Done:  E(RB3LYP) =  -788.826895914     A.U. after   12 cycles
 SCF Done:  E(RB3LYP) =  -788.868401515     A.U. after   11 cycles
 SCF Done:  E(RB3LYP) =  -788.864835182     A.U. after   12 cycles
 SCF Done:  E(RB3LYP) =  -788.892126797     A.U. after   11 cycles
 SCF Done:  E(RB3LYP) =  -788.898442715     A.U. after   11 cycles
 SCF Done:  E(RB3LYP) =  -788.901117423     A.U. after   11 cycles
 SCF Done:  E(RB3LYP) =  -788.902876888     A.U. after   10 cycles
 SCF Done:  E(RB3LYP) =  -788.904475273     A.U. after   11 cycles
 SCF Done:  E(RB3LYP) =  -788.905511032     A.U. after   10 cycles
 SCF Done:  E(RB3LYP) =  -788.907604776     A.U. after   12 cycles
 SCF Done:  E(RB3LYP) =  -788.914893794     A.U. after    8 cycles
 SCF Done:  E(RB3LYP) =  -788.914891702     A.U. after    8 cycles
 SCF Done:  E(RB3LYP) =  -788.914902863     A.U. after    9 cycles
 SCF Done:  E(RB3LYP) =  -788.914890267     A.U. after    9 cycles
 SCF Done:  E(RB3LYP) =  -788.914888082     A.U. after    7 cycles
 SCF Done:  E(RB3LYP) =  -788.914887227     A.U. after    6 cycles
 Optimization completed.
    -- Stationary point found.
 Normal termination of Gaussian 16 at Sun Jul 18 16:58:18 2021.

 --------------------------------------------------------------------
 #P Geom=AllCheck Guess=TCheck SCRF=Check GenChk RB3LYP/6-31G(d) Freq
 --------------------------------------------------------------------

 Structure from the checkpoint file:  "SET_328_BBB301_conf1.geo_165_300_090.chk"
 ---------------------------------------------
 SET_328_BBB301_conf1.geo_165_300_090 geometry
 ---------------------------------------------
 Charge =  1 Multiplicity = 1

 SCF Done:  E(RB3LYP) =  -788.914887227     A.U. after    1 cycles

  Exact polarizability: 226.633   1.743 190.011  23.616  -6.284 133.815
 Approx polarizability: 252.952   3.523 236.878  32.721  -8.812 164.905

                      1                      2                      3
                      A                      A                      A
 Frequencies --     38.0852                49.5157                58.6148
 Red. masses --      4.7668                 3.7374                 4.6979
 Frc consts  --      0.0041                 0.0054                 0.0095
 IR Inten    --      1.0079                 1.1702                 0.1405

                      4                      5                      6
                      A                      A                      A
 Frequencies --     61.8644               103.4994               127.9948
 Red. masses --      3.3205                 3.5713                 4.5272
 Frc consts  --      0.0075                 0.0225                 0.0437
 IR Inten    --      0.1344                 3.3502                 5.1225

                      7                      8                      9
                      A                      A                      A
 Frequencies --    133.3953               163.8850               190.7731
 Red. masses --      3.4787                 3.8196                 3.3904
 Frc consts  --      0.0365                 0.0604                 0.0727
 IR Inten    --      9.4672                 7.6653                 0.5266

                     10                     11                     12
                      A                      A                      A
 Frequencies --    224.1557               230.5717               252.6426
 Red. masses --      1.6240                 1.6041                 1.3131
 Frc consts  --      0.0481                 0.0502                 0.0494
 IR Inten    --     98.2116                80.7266                 0.8557

                     13                     14                     15
                      A                      A                      A
 Frequencies --    264.6729               297.6035               300.7579
 Red. masses --      2.2219                 2.5397                 1.4487
 Frc consts  --      0.0917                 0.1325                 0.0772
 IR Inten    --      0.9818                 3.8662                 3.6075

                     16                     17                     18
                      A                      A                      A
 Frequencies --    306.5601               328.5197               350.0869
 Red. masses --      1.9817                 1.1656                 1.2750
 Frc consts  --      0.1097                 0.0741                 0.0921
 IR Inten    --      3.6391                 2.2285               161.1448

                     19                     20                     21
                      A                      A                      A
 Frequencies --    351.0446               359.9823               371.1588
 Red. masses --      2.0190                 1.3617                 2.9851
 Frc consts  --      0.1466                 0.1040                 0.2423
 IR Inten    --     33.3806               117.2495                46.9738

                     22                     23                     24
                      A                      A                      A
 Frequencies --    379.3595               406.8880               440.7054
 Red. masses --      2.1910                 3.2208                 3.0302
 Frc consts  --      0.1858                 0.3142                 0.3467
 IR Inten    --      2.9788                 4.5454                24.0105

                     25                     26                     27
                      A                      A                      A
 Frequencies --    455.8002               493.8813               504.0186
 Red. masses --      2.8303                 2.9611                 3.7199
 Frc consts  --      0.3464                 0.4255                 0.5568
 IR Inten    --     12.9235                11.0711                13.2263

                     28                     29                     30
                      A                      A                      A
 Frequencies --    507.7684               549.1975               571.7053
 Red. masses --      2.4459                 3.2323                 4.0272
 Frc consts  --      0.3715                 0.5744                 0.7755
 IR Inten    --      7.0625                 8.3722                20.8301

                     31                     32                     33
                      A                      A                      A
 Frequencies --    608.4425               653.6097               733.0671
 Red. masses --      4.8309                 4.5424                 4.5414
 Frc consts  --      1.0537                 1.1433                 1.4379
 IR Inten    --      5.3269                35.9821                 3.7539

                     34                     35                     36
                      A                      A                      A
 Frequencies --    760.6772               784.9768               808.0146
 Red. masses --      4.4423                 4.0814                 3.7102
 Frc consts  --      1.5145                 1.4817                 1.4272
 IR Inten    --      5.2773                 5.5788                 9.9511

                     37                     38                     39
                      A                      A                      A
 Frequencies --    832.9556               873.2095               883.6594
 Red. masses --      1.5200                 1.4994                 2.8516
 Frc consts  --      0.6214                 0.6736                 1.3119
 IR Inten    --     34.2642                 2.1410                 9.6795

                     40                     41                     42
                      A                      A                      A
 Frequencies --    928.7401               942.4035               953.5855
 Red. masses --      1.4245                 2.0661                 1.3082
 Frc consts  --      0.7239                 1.0811                 0.7009
 IR Inten    --     16.0337                21.4909                 0.9928

                     43                     44                     45
                      A                      A                      A
 Frequencies --    955.9640               963.3547               976.1089
 Red. masses --      1.6145                 1.5867                 2.3134
 Frc consts  --      0.8693                 0.8676                 1.2987
 IR Inten    --      3.1179                 1.2782                 9.9844

                     46                     47                     48
                      A                      A                      A
 Frequencies --   1000.3573              1005.3207              1022.0319
 Red. masses --      1.3149                 3.1689                 1.9391
 Frc consts  --      0.7753                 1.8870                 1.1934
 IR Inten    --      6.4927                42.9137                 2.5727

                     49                     50                     51
                      A                      A                      A
 Frequencies --   1041.9862              1051.9223              1076.7388
 Red. masses --      1.8297                 5.5154                 2.3430
 Frc consts  --      1.1705                 3.5958                 1.6005
 IR Inten    --     18.8110                85.0241               116.7272

                     52                     53                     54
                      A                      A                      A
 Frequencies --   1098.7745              1127.9852              1135.2253
 Red. masses --      1.5888                 1.7993                 1.8693
 Frc consts  --      1.1301                 1.3489                 1.4194
 IR Inten    --     10.4518                51.5005               122.2115

                     55                     56                     57
                      A                      A                      A
 Frequencies --   1176.6614              1192.1126              1199.4071
 Red. masses --      1.5805                 1.2331                 1.2242
 Frc consts  --      1.2893                 1.0325                 1.0376
 IR Inten    --     16.0944                13.0591                52.3339

                     58                     59                     60
                      A                      A                      A
 Frequencies --   1233.5909              1246.2648              1256.0604
 Red. masses --      2.1016                 1.3581                 1.3475
 Frc consts  --      1.8843                 1.2428                 1.2526
 IR Inten    --     94.2293                68.3355                26.4495

                     61                     62                     63
                      A                      A                      A
 Frequencies --   1269.7152              1281.9983              1309.8021
 Red. masses --      1.9116                 1.4080                 1.6363
 Frc consts  --      1.8157                 1.3634                 1.6540
 IR Inten    --     53.2650                22.3410                54.3312

                     64                     65                     66
                      A                      A                      A
 Frequencies --   1316.7024              1323.4406              1341.4109
 Red. masses --      1.6577                 3.1668                 1.5600
 Frc consts  --      1.6933                 3.2680                 1.6538
 IR Inten    --     10.6095               212.7681                89.9325

                     67                     68                     69
                      A                      A                      A
 Frequencies --   1351.2265              1371.1986              1399.4128
 Red. masses --      1.4124                 1.7766                 2.1640
 Frc consts  --      1.5193                 1.9680                 2.4969
 IR Inten    --     35.4827                 8.5976                81.2106

                     70                     71                     72
                      A                      A                      A
 Frequencies --   1424.6096              1435.7836              1447.5476
 Red. masses --      1.3137                 1.4529                 1.2083
 Frc consts  --      1.5708                 1.7646                 1.4917
 IR Inten    --     67.6147                 3.0608                19.5814

                     73                     74                     75
                      A                      A                      A
 Frequencies --   1452.2971              1466.2129              1472.7008
 Red. masses --      1.2371                 1.6506                 1.2139
 Frc consts  --      1.5374                 2.0907                 1.5512
 IR Inten    --     35.5516                21.0361                20.1620

                     76                     77                     78
                      A                      A                      A
 Frequencies --   1490.8977              1507.8771              1511.1791
 Red. masses --      2.6848                 1.0573                 1.0611
 Frc consts  --      3.5161                 1.4164                 1.4277
 IR Inten    --     42.7750                 1.4471                26.0808

                     79                     80                     81
                      A                      A                      A
 Frequencies --   1515.0794              1521.6204              1522.4886
 Red. masses --      1.0811                 1.0451                 1.0738
 Frc consts  --      1.4622                 1.4256                 1.4665
 IR Inten    --      5.8226                 4.5409                60.5628

                     82                     83                     84
                      A                      A                      A
 Frequencies --   1536.0939              1540.8853              1545.8815
 Red. masses --      1.0964                 1.0698                 1.0635
 Frc consts  --      1.5242                 1.4966                 1.4974
 IR Inten    --      6.2108                 6.1133                29.7840

                     85                     86                     87
                      A                      A                      A
 Frequencies --   1559.4349              1592.9217              1658.0051
 Red. masses --      2.7639                 1.1223                 6.0618
 Frc consts  --      3.9601                 1.6778                 9.8180
 IR Inten    --     64.1133                34.5078                13.0372

                     88                     89                     90
                      A                      A                      A
 Frequencies --   1673.3474              1730.9944              3022.3213
 Red. masses --      6.4602                 1.0631                 1.0636
 Frc consts  --     10.6578                 1.8768                 5.7244
 IR Inten    --     91.8482               104.7065                87.6941

                     91                     92                     93
                      A                      A                      A
 Frequencies --   3036.5231              3076.4162              3080.0927
 Red. masses --      1.0834                 1.0366                 1.0993
 Frc consts  --      5.8857                 5.7804                 6.1447
 IR Inten    --     49.0667                15.8431                49.4548

                     94                     95                     96
                      A                      A                      A
 Frequencies --   3080.2434              3091.5257              3145.1108
 Red. masses --      1.0370                 1.0365                 1.0694
 Frc consts  --      5.7972                 5.8369                 6.2322
 IR Inten    --     11.7048                 4.3219                 0.4105

                     97                     98                     99
                      A                      A                      A
 Frequencies --   3147.8632              3151.8791              3158.1879
 Red. masses --      1.1015                 1.0979                 1.1031
 Frc consts  --      6.4307                 6.4262                 6.4824
 IR Inten    --     15.9758                23.3236                 1.0236

                    100                    101                    102
                      A                      A                      A
 Frequencies --   3162.9162              3167.2736              3169.3117
 Red. masses --      1.1007                 1.1007                 1.1008
 Frc consts  --      6.4878                 6.5057                 6.5145
 IR Inten    --     20.3431                31.8503                24.3316

                    103                    104                    105
                      A                      A                      A
 Frequencies --   3189.7864              3206.2516              3212.6957
 Red. masses --      1.0873                 1.0945                 1.1106
 Frc consts  --      6.5183                 6.6293                 6.7536
 IR Inten    --     17.0476                23.7832                 4.0942

                    106                    107                    108
                      A                      A                      A
 Frequencies --   3219.0208              3423.8646              3481.3729
 Red. masses --      1.0899                 1.0579                 1.0861
 Frc consts  --      6.6538                 7.3069                 7.7554
 IR Inten    --      4.6111               113.5393               125.1690

                    109                    110                    111
                      A                      A                      A
 Frequencies --   3716.7592              3742.1525              3756.0659
 Red. masses --      1.0667                 1.0662                 1.0663
 Frc consts  --      8.6820                 8.7969                 8.8634
 IR Inten    --     95.0400                33.9945               141.3377

 - Thermochemistry -
 -------------------
 Temperature   298.150 Kelvin.  Pressure   1.00000 Atm.
 Atom     1 has atomic number  6 and mass  12.00000

 Molecular mass:   240.15997 amu.
 Principal axes and moments of inertia in atomic units:
                           1         2         3
     Eigenvalues --  1869.79804********************
           X            1.00000  -0.00071  -0.00278
           Y            0.00062   0.99940  -0.03459
           Z            0.00280   0.03459   0.99940
 This molecule is an asymmetric top.
 Rotational symmetry number  1.
 Warning -- assumption of classical behavior for rotation
           may cause significant error
 Rotational temperatures (Kelvin)      0.04632     0.00863     0.00817
 Rotational constants (GHZ):           0.96521     0.17978     0.17034
 Zero-point vibrational energy     911592.2 (Joules/Mol)
                                  217.87577 (Kcal/Mol)
 Warning -- explicit consideration of  31 degrees of freedom as
           vibrations may cause significant error
 Vibrational temperatures:     54.80    71.24    84.33    89.01   148.91
          (Kelvin)            184.16   191.93   235.79   274.48   322.51
                              331.74   363.50   380.81   428.19   432.72
                              441.07   472.67   503.70   505.07   517.93
                              534.01   545.81   585.42   634.08   655.79
                              710.58   725.17   730.57   790.17   822.56
                              875.41   940.40  1054.72  1094.44  1129.41
                             1162.55  1198.44  1256.35  1271.39  1336.25
                             1355.91  1372.00  1375.42  1386.05  1404.40
                             1439.29  1446.43  1470.48  1499.19  1513.48
                             1549.19  1580.89  1622.92  1633.34  1692.95
                             1715.18  1725.68  1774.86  1793.10  1807.19
                             1826.84  1844.51  1884.51  1894.44  1904.14
                             1929.99  1944.11  1972.85  2013.44  2049.70
                             2065.77  2082.70  2089.53  2109.55  2118.89
                             2145.07  2169.50  2174.25  2179.86  2189.27
                             2190.52  2210.10  2216.99  2224.18  2243.68
                             2291.86  2385.50  2407.57  2490.51  4348.45
                             4368.88  4426.28  4431.57  4431.78  4448.02
                             4525.11  4529.07  4534.85  4543.93  4550.73
                             4557.00  4559.93  4589.39  4613.08  4622.35
                             4631.45  4926.18  5008.92  5347.59  5384.12
                             5404.14

 Zero-point correction=                           0.347207 (Hartree/Particle)
 Thermal correction to Energy=                    0.365506
 Thermal correction to Enthalpy=                  0.366450
 Thermal correction to Gibbs Free Energy=         0.301337
 Sum of electronic and zero-point Energies=           -788.567680
 Sum of electronic and thermal Energies=              -788.549382
 Sum of electronic and thermal Enthalpies=            -788.548437
 Sum of electronic and thermal Free Energies=         -788.613550

                     E (Thermal)             CV                S
                      KCal/Mol        Cal/Mol-Kelvin    Cal/Mol-Kelvin
 Total                  229.358             70.636            137.042
 Electronic               0.000              0.000              0.000
 Translational            0.889              2.981             42.330
 Rotational               0.889              2.981             33.652
 Vibrational            227.581             64.675             61.060
 Vibration     1          0.594              1.982              5.356
 Vibration     2          0.595              1.978              4.837
 Vibration     3          0.596              1.974              4.503
 Vibration     4          0.597              1.973              4.397
 Vibration     5          0.605              1.946              3.387
 Vibration     6          0.611              1.925              2.976
 Vibration     7          0.613              1.920              2.897
 Vibration     8          0.623              1.887              2.504
 Vibration     9          0.634              1.853              2.220
 Vibration    10          0.649              1.804              1.925
 Vibration    11          0.652              1.794              1.874
 Vibration    12          0.664              1.758              1.712
 Vibration    13          0.671              1.738              1.631
 Vibration    14          0.691              1.678              1.430
 Vibration    15          0.693              1.672              1.413
 Vibration    16          0.697              1.661              1.381
 Vibration    17          0.712              1.619              1.267
 Vibration    18          0.727              1.575              1.166
 Vibration    19          0.728              1.573              1.161
 Vibration    20          0.734              1.555              1.122
 Vibration    21          0.743              1.531              1.075
 Vibration    22          0.749              1.514              1.042
 Vibration    23          0.772              1.455              0.938
 Vibration    24          0.801              1.381              0.824
 Vibration    25          0.814              1.348              0.778
 Vibration    26          0.850              1.264              0.674
 Vibration    27          0.859              1.241              0.648
 Vibration    28          0.863              1.233              0.639
 Vibration    29          0.904              1.141              0.546
 Vibration    30          0.928              1.092              0.501
 Vibration    31          0.967              1.014              0.435

 Optimization completed.
    -- Stationary point found.
 Normal termination of Gaussian 16 at Sun Jul 18 17:35:34 2021.

 ----------------------------------------------------------------------
 #p b3lyp/6-31G(d) scrf=(iefpcm,read,solvent=n-octanol) geom=allcheck g
 uess=read
 ----------------------------------------------------------------------

 Structure from the checkpoint file:  "SET_328_BBB301_conf1.geo_165_300_090.chk"
 ---------------------------------------------
 SET_328_BBB301_conf1.geo_165_300_090 geometry
 ---------------------------------------------
 Charge =  1 Multiplicity = 1

 SCF Done:  E(RB3LYP) =  -788.917042301     A.U. after    1 cycles
 Normal termination of Gaussian 16 at Sun Jul 18 17:36:38 2021.

 -----------------------------
 #p B3LYP/6-31G* geom=allcheck
 -----------------------------

 Structure from the checkpoint file:  "SET_328_BBB301_conf1.geo_165_300_090.chk"
 ---------------------------------------------
 SET_328_BBB301_conf1.geo_165_300_090 geometry
 ---------------------------------------------
 Charge =  1 Multiplicity = 1

 SCF Done:  E(RB3LYP) =  -788.818154487     A.U. after   14 cycles
 Normal termination of Gaussian 16 at Sun Jul 18 17:38:59 2021.
 Gaussian 16:  ES64L-G16RevA.03 25-Dec-2016

 --------------------------------------------------------
 #p mp2/aug-cc-pVDZ scf=tight maxdisk=180GB geom=allcheck
 --------------------------------------------------------

 Structure from the checkpoint file:  "SET_328_BBB301_conf1.geo_165_300_090.chk"
 ---------------------------------------------
 SET_328_BBB301_conf1.geo_165_300_090 geometry
 ---------------------------------------------
 Charge =  1 Multiplicity = 1

                         Standard orientation:
 ---------------------------------------------------------------------
 Center     Atomic      Atomic             Coordinates (Angstroms)
 Number     Number       Type             X           Y           Z
 ---------------------------------------------------------------------
      1          6           0        3.732581    1.425448   -1.204651
      2          1           0        2.859667    1.294311   -1.846692
      3          1           0        4.573639    1.693525   -1.847591
      4          1           0        3.550166    2.264757   -0.527885
      5          6           0        4.091991    0.151347   -0.439025
      6          6           0        4.250600   -1.047249   -1.378066
      7          1           0        3.341684   -1.229524   -1.954881
      8          1           0        4.508805   -1.958543   -0.831097
      9          1           0        5.058068   -0.839770   -2.084506
     10          6           0        5.350250    0.371587    0.406582
     11          1           0        5.230259    1.214938    1.091483
     12          1           0        6.186125    0.598647   -0.257258
     13          1           0        5.617170   -0.517528    0.985064
     14          7           0        2.952947   -0.162631    0.550167
     15          1           0        3.229246   -0.966216    1.131609
     16          6           0        1.583948   -0.420400   -0.016660
     17          1           0        1.599652   -1.369632   -0.548333
     18          1           0        1.360165    0.385913   -0.713158
     19          6           0        0.560713   -0.421346    1.121753
     20          8           0        0.775101    0.828523    1.774206
     21          1           0        0.217238    0.865468    2.570929
     22          1           0        0.789256   -1.255114    1.800703
     23          6           0       -0.851343   -0.586482    0.600045
     24          6           0       -1.574376    0.524624    0.153396
     25          1           0       -1.117054    1.506081    0.213096
     26          6           0       -2.871793    0.411442   -0.338377
     27          6           0       -3.649792    1.629589   -0.756928
     28          8           0       -4.402091    2.093949    0.368285
     29          1           0       -4.992599    2.793982    0.046791
     30          1           0       -4.314011    1.369165   -1.588475
     31          1           0       -2.949054    2.402078   -1.102786
     32          6           0       -3.460514   -0.865354   -0.384893
     33          8           0       -4.726831   -0.949246   -0.873877
     34          1           0       -5.017827   -1.874441   -0.871898
     35          6           0       -2.750538   -1.987691    0.052836
     36          1           0       -3.215221   -2.968857    0.018589
     37          6           0       -1.458159   -1.843901    0.549851
     38          1           0       -0.923832   -2.721496    0.904431
     39          1           0        2.846971    0.615175    1.216597
 ---------------------------------------------------------------------

 SCF Done:  E(RHF) =  -784.035373696     A.U. after   15 cycles
 E2 =    -0.2632436334D+01 EUMP2 =    -0.78666781002950D+03

 The electronic state is 1-A.
 Alpha  occ. eigenvalues --  -20.71903 -20.69263 -20.64520 -15.84022 -11.45711
 Alpha  occ. eigenvalues --  -11.44636 -11.44105 -11.41140 -11.37642 -11.37636
 Alpha  occ. eigenvalues --  -11.37414 -11.37040 -11.35804 -11.35194 -11.34983
 Alpha  occ. eigenvalues --  -11.34130 -11.33848  -1.52116  -1.50337  -1.46301
 Alpha  occ. eigenvalues --   -1.43576  -1.26562  -1.24498  -1.18021  -1.14275
 Alpha  occ. eigenvalues --   -1.11431  -1.09884  -1.09147  -1.01764  -1.00508
 Alpha  occ. eigenvalues --   -0.95248  -0.94137  -0.92241  -0.89851  -0.84820
 Alpha  occ. eigenvalues --   -0.83144  -0.82245  -0.81858  -0.78063  -0.77693
 Alpha  occ. eigenvalues --   -0.76748  -0.75430  -0.74727  -0.72972  -0.71322
 Alpha  occ. eigenvalues --   -0.70893  -0.70312  -0.68885  -0.68644  -0.68291
 Alpha  occ. eigenvalues --   -0.68174  -0.67757  -0.66922  -0.66443  -0.66113
 Alpha  occ. eigenvalues --   -0.63463  -0.63361  -0.63165  -0.61282  -0.59818
 Alpha  occ. eigenvalues --   -0.58125  -0.56732  -0.52618  -0.44357  -0.41504
 Alpha virt. eigenvalues --   -0.07622  -0.05547  -0.05510  -0.04743  -0.03574
 Alpha virt. eigenvalues --   -0.03317  -0.03296  -0.03131  -0.02824  -0.02136
 Alpha virt. eigenvalues --   -0.01620  -0.01230  -0.00869  -0.00674  -0.00094

 Mulliken charges:
               1
     1  C    1.282085
     2  H   -0.019121
     3  H   -0.020938
     4  H    0.007197
     5  C   -3.450393
     6  C    1.324956
     7  H   -0.044610
     8  H   -0.026995
     9  H    0.031129
    10  C    1.326826
    11  H   -0.000558
    12  H    0.040125
    13  H   -0.018797
    14  N   -0.710414
    15  H    0.208702
    16  C    0.803699
    17  H   -0.242687
    18  H   -0.240714
    19  C    1.460622
    20  O   -0.905338
    21  H    0.203637
    22  H   -0.329172
    23  C    0.509054
    24  C    0.101328
    25  H   -0.855216
    26  C    0.114436
    27  C    1.408370
    28  O   -0.674472
    29  H    0.135336
    30  H   -0.092333
    31  H   -0.153746
    32  C    0.916537
    33  O   -0.981397
    34  H    0.239481
    35  C    0.327484
    36  H   -0.619528
    37  C    0.366798
    38  H   -0.694215
    39  H    0.272843
 Sum of Mulliken charges =   1.00000

 Dipole moment (field-independent basis, Debye):
    X=             10.7238    Y=             -2.1566    Z=              0.0367  Tot=             10.9386
 Quadrupole moment (field-independent basis, Debye-Ang):
   XX=            -35.5508   YY=            -84.0481   ZZ=            -94.4525
   XY=              2.8214   XZ=              7.1925   YZ=             -4.5541

 Normal termination of Gaussian 16 at Sun Jul 18 18:47:09 2021.
