 Gaussian 16, Revision A.03,

 ---------------------------------------------------------------
 #p b3lyp/6-31G(d) opt freq scrf=(iefpcm,read,solvent=n-octanol)
 ---------------------------------------------------------------

 --------------------------------------------
 SET_328_BBB20_conf1.geo_060_180_180 geometry
 --------------------------------------------
 Symbolic Z-matrix:
 Charge =  1 Multiplicity = 1

 SCF Done:  E(RB3LYP) =  -769.801784202     A.U. after   13 cycles
 SCF Done:  E(RB3LYP) =  -769.826704674     A.U. after   11 cycles
 SCF Done:  E(RB3LYP) =  -769.810576970     A.U. after   12 cycles
 SCF Done:  E(RB3LYP) =  -769.837194623     A.U. after   11 cycles
 SCF Done:  E(RB3LYP) =  -769.837581248     A.U. after   11 cycles
 SCF Done:  E(RB3LYP) =  -769.838538820     A.U. after   10 cycles
 SCF Done:  E(RB3LYP) =  -769.838173764     A.U. after   13 cycles
 SCF Done:  E(RB3LYP) =  -769.839279357     A.U. after   11 cycles
 SCF Done:  E(RB3LYP) =  -769.839232899     A.U. after   10 cycles
 SCF Done:  E(RB3LYP) =  -769.839221857     A.U. after   10 cycles
 SCF Done:  E(RB3LYP) =  -769.839369257     A.U. after    8 cycles
 SCF Done:  E(RB3LYP) =  -769.839379232     A.U. after    9 cycles
 SCF Done:  E(RB3LYP) =  -769.839379955     A.U. after    8 cycles
 SCF Done:  E(RB3LYP) =  -769.839380528     A.U. after    7 cycles
 SCF Done:  E(RB3LYP) =  -769.839356794     A.U. after    9 cycles
 SCF Done:  E(RB3LYP) =  -769.839360063     A.U. after    7 cycles
 Optimization completed.
    -- Stationary point found.
 Normal termination of Gaussian 16 at Sun Jul 18 16:25:11 2021.

 --------------------------------------------------------------------
 #P Geom=AllCheck Guess=TCheck SCRF=Check GenChk RB3LYP/6-31G(d) Freq
 --------------------------------------------------------------------

 Structure from the checkpoint file:  "SET_328_BBB20_conf1.geo_060_180_180.chk"
 --------------------------------------------
 SET_328_BBB20_conf1.geo_060_180_180 geometry
 --------------------------------------------
 Charge =  1 Multiplicity = 1

 SCF Done:  E(RB3LYP) =  -769.839360063     A.U. after    1 cycles

  Exact polarizability: 243.885  27.740 253.970 -34.420  29.272 183.299
 Approx polarizability: 280.170  23.578 308.262 -48.366  42.678 241.873

                      1                      2                      3
                      A                      A                      A
 Frequencies --     29.0952                48.2587                63.0945
 Red. masses --      3.9921                 4.3591                 3.9724
 Frc consts  --      0.0020                 0.0060                 0.0093
 IR Inten    --      7.7043                 6.2276                16.7036

                      4                      5                      6
                      A                      A                      A
 Frequencies --     94.9373               106.1317               144.5643
 Red. masses --      3.6312                 2.2935                 3.2938
 Frc consts  --      0.0193                 0.0152                 0.0406
 IR Inten    --      0.9637                 6.2704                 2.2934

                      7                      8                      9
                      A                      A                      A
 Frequencies --    152.6288               159.8861               218.6183
 Red. masses --      2.0148                 2.9753                 3.2134
 Frc consts  --      0.0277                 0.0448                 0.0905
 IR Inten    --      5.9366                 1.6294                 2.7075

                     10                     11                     12
                      A                      A                      A
 Frequencies --    234.5783               266.6623               283.9377
 Red. masses --      3.4111                 3.0424                 3.1438
 Frc consts  --      0.1106                 0.1275                 0.1493
 IR Inten    --     13.6157                 9.0294                 2.1995

                     13                     14                     15
                      A                      A                      A
 Frequencies --    305.8887               340.2299               353.3181
 Red. masses --      3.0916                 4.0100                 1.3294
 Frc consts  --      0.1704                 0.2735                 0.0978
 IR Inten    --      2.4176                 1.9019                 0.0193

                     16                     17                     18
                      A                      A                      A
 Frequencies --    364.2734               413.1634               438.7750
 Red. masses --      2.3799                 4.0285                 3.2529
 Frc consts  --      0.1861                 0.4052                 0.3690
 IR Inten    --      2.2284                11.1679                 6.0907

                     19                     20                     21
                      A                      A                      A
 Frequencies --    465.4411               472.2606               486.4324
 Red. masses --      3.2761                 3.1578                 3.4380
 Frc consts  --      0.4182                 0.4150                 0.4793
 IR Inten    --      7.0875                 0.6252                 4.0614

                     22                     23                     24
                      A                      A                      A
 Frequencies --    520.2667               550.6684               575.9425
 Red. masses --      3.7923                 3.9008                 4.8629
 Frc consts  --      0.6048                 0.6969                 0.9504
 IR Inten    --      0.1503                 0.6918                 0.8086

                     25                     26                     27
                      A                      A                      A
 Frequencies --    598.1993               620.6632               634.5741
 Red. masses --      3.4074                 4.0045                 5.2609
 Frc consts  --      0.7184                 0.9089                 1.2482
 IR Inten    --      0.9281                13.2407                 7.2908

                     28                     29                     30
                      A                      A                      A
 Frequencies --    705.6925               729.5040               759.0637
 Red. masses --      4.8371                 3.5720                 2.4537
 Frc consts  --      1.4193                 1.1200                 0.8330
 IR Inten    --      0.1595                 2.4787                10.4258

                     31                     32                     33
                      A                      A                      A
 Frequencies --    766.7079               770.6565               785.6824
 Red. masses --      1.2409                 1.4900                 1.4522
 Frc consts  --      0.4298                 0.5214                 0.5282
 IR Inten    --     26.1841                25.0329                46.5693

                     34                     35                     36
                      A                      A                      A
 Frequencies --    786.9358               811.6479               849.9873
 Red. masses --      2.3445                 4.0118                 1.3851
 Frc consts  --      0.8554                 1.5571                 0.5896
 IR Inten    --     14.1829                 0.7427                 6.3894

                     37                     38                     39
                      A                      A                      A
 Frequencies --    875.0787               888.9130               897.4553
 Red. masses --      1.3850                 1.4533                 2.1438
 Frc consts  --      0.6249                 0.6766                 1.0173
 IR Inten    --      1.5705                 1.4914                 8.7062

                     40                     41                     42
                      A                      A                      A
 Frequencies --    931.4120               945.0162               949.3540
 Red. masses --      2.4178                 1.8406                 1.5629
 Frc consts  --      1.2358                 0.9685                 0.8299
 IR Inten    --     20.4359                20.8664                12.1095

                     43                     44                     45
                      A                      A                      A
 Frequencies --    952.2059               983.5413               986.9390
 Red. masses --      1.3901                 1.2580                 1.2534
 Frc consts  --      0.7426                 0.7170                 0.7193
 IR Inten    --     10.4807                 0.4404                 0.4176

                     46                     47                     48
                      A                      A                      A
 Frequencies --    990.0679               996.6344              1020.6430
 Red. masses --      2.0872                 1.3800                 2.4689
 Frc consts  --      1.2054                 0.8076                 1.5153
 IR Inten    --      1.3840                14.8501                10.4361

                     49                     50                     51
                      A                      A                      A
 Frequencies --   1052.0543              1066.5964              1076.9588
 Red. masses --      2.4765                 3.0320                 2.1784
 Frc consts  --      1.6149                 2.0323                 1.4887
 IR Inten    --      1.8471                 6.3657                 3.5822

                     52                     53                     54
                      A                      A                      A
 Frequencies --   1085.1181              1095.1213              1137.8915
 Red. masses --      3.1244                 2.2886                 2.0955
 Frc consts  --      2.1676                 1.6172                 1.5986
 IR Inten    --      5.9261                12.4228                46.2562

                     55                     56                     57
                      A                      A                      A
 Frequencies --   1154.9058              1170.0829              1177.8789
 Red. masses --      1.9168                 1.9203                 1.5768
 Frc consts  --      1.5063                 1.5490                 1.2890
 IR Inten    --     13.4891                49.9191                37.2787

                     58                     59                     60
                      A                      A                      A
 Frequencies --   1192.4444              1195.4859              1204.8740
 Red. masses --      1.1485                 1.2181                 1.1632
 Frc consts  --      0.9622                 1.0257                 0.9949
 IR Inten    --      2.8827                 0.9948                 5.1014

                     61                     62                     63
                      A                      A                      A
 Frequencies --   1215.6273              1238.2835              1253.3510
 Red. masses --      1.6960                 2.5707                 1.7529
 Frc consts  --      1.4767                 2.3224                 1.6224
 IR Inten    --      0.7916                 6.9771                49.1955

                     64                     65                     66
                      A                      A                      A
 Frequencies --   1263.0108              1278.9960              1299.8793
 Red. masses --      2.0166                 1.8796                 1.3971
 Frc consts  --      1.8953                 1.8116                 1.3909
 IR Inten    --     69.2550               142.9622                 6.7527

                     67                     68                     69
                      A                      A                      A
 Frequencies --   1311.9812              1325.6746              1335.6128
 Red. masses --      1.4154                 1.6057                 1.8536
 Frc consts  --      1.4354                 1.6626                 1.9482
 IR Inten    --      3.2588                 5.2499                87.9742

                     70                     71                     72
                      A                      A                      A
 Frequencies --   1347.1867              1358.4003              1370.6208
 Red. masses --      3.8441                 1.9222                 1.2249
 Frc consts  --      4.1105                 2.0898                 1.3557
 IR Inten    --      0.8828                 7.6105                16.4371

                     73                     74                     75
                      A                      A                      A
 Frequencies --   1373.7072              1383.2145              1400.1235
 Red. masses --      1.9326                 1.5089                 1.4773
 Frc consts  --      2.1487                 1.7009                 1.7063
 IR Inten    --     22.3373                 5.3696                16.7264

                     76                     77                     78
                      A                      A                      A
 Frequencies --   1434.9538              1449.9341              1489.2739
 Red. masses --      1.3765                 1.4373                 1.5910
 Frc consts  --      1.6699                 1.7803                 2.0791
 IR Inten    --      5.1058                52.4930                25.5600

                     79                     80                     81
                      A                      A                      A
 Frequencies --   1494.9720              1502.6085              1505.9272
 Red. masses --      1.4736                 1.2665                 1.8470
 Frc consts  --      1.9405                 1.6848                 2.4678
 IR Inten    --     25.7706                 1.8571                46.8445

                     82                     83                     84
                      A                      A                      A
 Frequencies --   1512.0893              1531.8649              1535.0412
 Red. masses --      1.1138                 1.3558                 1.4678
 Frc consts  --      1.5004                 1.8745                 2.0377
 IR Inten    --     10.7441                99.1944                82.9438

                     85                     86                     87
                      A                      A                      A
 Frequencies --   1547.1293              1548.8379              1556.6919
 Red. masses --      1.5258                 1.5288                 1.2440
 Frc consts  --      2.1518                 2.1608                 1.7761
 IR Inten    --     42.5341               190.8017                 4.8746

                     88                     89                     90
                      A                      A                      A
 Frequencies --   1633.2978              1643.6470              1649.3217
 Red. masses --      5.9223                 6.4345                 1.0413
 Frc consts  --      9.3083                10.2420                 1.6690
 IR Inten    --     21.5953                 8.1671                75.7109

                     91                     92                     93
                      A                      A                      A
 Frequencies --   1656.9777              1663.0570              1676.5344
 Red. masses --      5.7856                 5.6512                 1.0394
 Frc consts  --      9.3591                 9.2089                 1.7213
 IR Inten    --     26.6692                13.5518                92.0525

                     94                     95                     96
                      A                      A                      A
 Frequencies --   2997.2742              3039.8333              3062.0843
 Red. masses --      1.0724                 1.0637                 1.0675
 Frc consts  --      5.6765                 5.7911                 5.8974
 IR Inten    --     78.9896                39.7830                18.5540

                     97                     98                     99
                      A                      A                      A
 Frequencies --   3077.8718              3078.1032              3111.8820
 Red. masses --      1.0890                 1.0618                 1.1040
 Frc consts  --      6.0780                 5.9275                 6.2991
 IR Inten    --     61.2603                26.1506                38.2570

                    100                    101                    102
                      A                      A                      A
 Frequencies --   3117.7671              3127.2949              3133.0917
 Red. masses --      1.0931                 1.0622                 1.0977
 Frc consts  --      6.2601                 6.1204                 6.3486
 IR Inten    --      1.0809                22.2606                33.1049

                    103                    104                    105
                      A                      A                      A
 Frequencies --   3180.5076              3182.8042              3196.5213
 Red. masses --      1.0883                 1.1094                 1.0857
 Frc consts  --      6.4864                 6.6213                 6.5363
 IR Inten    --     22.4470                18.9600                 3.7558

                    106                    107                    108
                      A                      A                      A
 Frequencies --   3199.1978              3206.7520              3218.5618
 Red. masses --      1.0879                 1.0891                 1.0919
 Frc consts  --      6.5605                 6.5984                 6.6646
 IR Inten    --     16.1006                20.5715                43.5475

                    109                    110                    111
                      A                      A                      A
 Frequencies --   3224.6157              3225.2287              3231.7087
 Red. masses --      1.0926                 1.0967                 1.0939
 Frc consts  --      6.6935                 6.7214                 6.7312
 IR Inten    --     43.3507                26.4620                20.7663

                    112                    113                    114
                      A                      A                      A
 Frequencies --   3392.4313              3459.7937              3477.8003
 Red. masses --      1.0350                 1.0936                 1.0935
 Frc consts  --      7.0177                 7.7127                 7.7925
 IR Inten    --    105.6693               192.4986               180.6658

 - Thermochemistry -
 -------------------
 Temperature   298.150 Kelvin.  Pressure   1.00000 Atm.
 Atom     1 has atomic number  7 and mass  14.00307

 Molecular mass:   253.17047 amu.
 Principal axes and moments of inertia in atomic units:
                           1         2         3
     Eigenvalues --  4141.394915881.339028373.13519
           X            0.99829  -0.05852  -0.00101
           Y            0.05853   0.99824   0.00913
           Z            0.00048  -0.00917   0.99996
 This molecule is an asymmetric top.
 Rotational symmetry number  1.
 Warning -- assumption of classical behavior for rotation
           may cause significant error
 Rotational temperatures (Kelvin)      0.02091     0.01473     0.01034
 Rotational constants (GHZ):           0.43578     0.30686     0.21554
 Zero-point vibrational energy     931077.5 (Joules/Mol)
                                  222.53285 (Kcal/Mol)
 Warning -- explicit consideration of  26 degrees of freedom as
           vibrations may cause significant error
 Vibrational temperatures:     41.86    69.43    90.78   136.59   152.70
          (Kelvin)            208.00   219.60   230.04   314.54   337.51
                              383.67   408.52   440.11   489.51   508.35
                              524.11   594.45   631.30   669.67   679.48
                              699.87   748.55   792.29   828.65   860.68
                              893.00   913.01  1015.33  1049.59  1092.12
                             1103.12  1108.80  1130.42  1132.23  1167.78
                             1222.94  1259.04  1278.95  1291.24  1340.09
                             1359.67  1365.91  1370.01  1415.10  1419.99
                             1424.49  1433.93  1468.48  1513.67  1534.59
                             1549.50  1561.24  1575.64  1637.17  1661.65
                             1683.49  1694.71  1715.66  1720.04  1733.54
                             1749.02  1781.61  1803.29  1817.19  1840.19
                             1870.24  1887.65  1907.35  1921.65  1938.30
                             1954.44  1972.02  1976.46  1990.14  2014.47
                             2064.58  2086.13  2142.73  2150.93  2161.92
                             2166.69  2175.56  2204.01  2208.58  2225.97
                             2228.43  2239.73  2349.95  2364.84  2373.01
                             2384.02  2392.77  2412.16  4312.41  4373.64
                             4405.66  4428.37  4428.70  4477.30  4485.77
                             4499.48  4507.82  4576.04  4579.35  4599.08
                             4602.93  4613.80  4630.79  4639.50  4640.38
                             4649.71  4880.95  4977.87  5003.78

 Zero-point correction=                           0.354629 (Hartree/Particle)
 Thermal correction to Energy=                    0.370955
 Thermal correction to Enthalpy=                  0.371900
 Thermal correction to Gibbs Free Energy=         0.310391
 Sum of electronic and zero-point Energies=           -769.484731
 Sum of electronic and thermal Energies=              -769.468405
 Sum of electronic and thermal Enthalpies=            -769.467460
 Sum of electronic and thermal Free Energies=         -769.528969

                     E (Thermal)             CV                S
                      KCal/Mol        Cal/Mol-Kelvin    Cal/Mol-Kelvin
 Total                  232.778             65.895            129.455
 Electronic               0.000              0.000              0.000
 Translational            0.889              2.981             42.487
 Rotational               0.889              2.981             33.677
 Vibrational            231.001             59.933             53.291
 Vibration     1          0.593              1.984              5.890
 Vibration     2          0.595              1.978              4.887
 Vibration     3          0.597              1.972              4.358
 Vibration     4          0.603              1.953              3.556
 Vibration     5          0.605              1.944              3.338
 Vibration     6          0.616              1.909              2.743
 Vibration     7          0.619              1.900              2.639
 Vibration     8          0.622              1.891              2.551
 Vibration     9          0.646              1.813              1.971
 Vibration    10          0.654              1.788              1.844
 Vibration    11          0.672              1.734              1.618
 Vibration    12          0.682              1.703              1.510
 Vibration    13          0.696              1.663              1.384
 Vibration    14          0.720              1.595              1.211
 Vibration    15          0.730              1.568              1.151
 Vibration    16          0.738              1.546              1.104
 Vibration    17          0.777              1.442              0.916
 Vibration    18          0.799              1.386              0.830
 Vibration    19          0.823              1.327              0.750
 Vibration    20          0.829              1.312              0.731
 Vibration    21          0.842              1.280              0.693
 Vibration    22          0.875              1.205              0.609
 Vibration    23          0.906              1.138              0.543
 Vibration    24          0.932              1.083              0.493
 Vibration    25          0.956              1.036              0.453
 Vibration    26          0.981              0.988              0.415

                           ! Non-Optimized Parameters !
 Normal termination of Gaussian 16 at Sun Jul 18 17:19:58 2021.

 ----------------------------------------------------------------------
 #p b3lyp/6-31G(d) scrf=(iefpcm,read,solvent=n-octanol) geom=allcheck g
 uess=read
 ----------------------------------------------------------------------

 Structure from the checkpoint file:  "SET_328_BBB20_conf1.geo_060_180_180.chk"
 --------------------------------------------
 SET_328_BBB20_conf1.geo_060_180_180 geometry
 --------------------------------------------
 Charge =  1 Multiplicity = 1

 SCF Done:  E(RB3LYP) =  -769.842186552     A.U. after    1 cycles
 Normal termination of Gaussian 16 at Sun Jul 18 17:21:06 2021.

 -----------------------------
 #p B3LYP/6-31G* geom=allcheck
 -----------------------------

 Structure from the checkpoint file:  "SET_328_BBB20_conf1.geo_060_180_180.chk"
 --------------------------------------------
 SET_328_BBB20_conf1.geo_060_180_180 geometry
 --------------------------------------------
 Charge =  1 Multiplicity = 1

 SCF Done:  E(RB3LYP) =  -769.715011604     A.U. after   14 cycles

 The electronic state is 1-A.
 Alpha  occ. eigenvalues --  -14.66608 -14.44715 -10.42984 -10.34979 -10.34641
 Alpha  occ. eigenvalues --  -10.30945 -10.30811 -10.27718 -10.27548 -10.27389
 Alpha  occ. eigenvalues --  -10.27089 -10.26993 -10.26904 -10.26680 -10.26507
 Alpha  occ. eigenvalues --  -10.26363 -10.26004 -10.25676 -10.25436  -1.20800
 Alpha  occ. eigenvalues --   -1.04846  -0.96327  -0.93721  -0.92222  -0.87904
 Alpha  occ. eigenvalues --   -0.85724  -0.83484  -0.83310  -0.80517  -0.79816
 Alpha  occ. eigenvalues --   -0.79076  -0.77397  -0.74531  -0.72635  -0.69490
 Alpha  occ. eigenvalues --   -0.68621  -0.67371  -0.66213  -0.64930  -0.63862
 Alpha  occ. eigenvalues --   -0.60434  -0.59814  -0.57306  -0.56505  -0.55903
 Alpha  occ. eigenvalues --   -0.54523  -0.54116  -0.53217  -0.52526  -0.51712
 Alpha  occ. eigenvalues --   -0.51481  -0.49935  -0.49582  -0.48337  -0.47620
 Alpha  occ. eigenvalues --   -0.46485  -0.45750  -0.44187  -0.43616  -0.42581
 Alpha  occ. eigenvalues --   -0.41891  -0.41565  -0.40678  -0.37433  -0.33118
 Alpha  occ. eigenvalues --   -0.32154  -0.31353  -0.28590
 Alpha virt. eigenvalues --   -0.16662  -0.10168  -0.10087  -0.08911  -0.08421
 Alpha virt. eigenvalues --   -0.07387  -0.06966  -0.06765  -0.03794  -0.02562
 Alpha virt. eigenvalues --   -0.00312   0.00313   0.02308   0.02697   0.03176

 Mulliken charges:
               1
     1  N   -0.724448
     2  H    0.431752
     3  H    0.433181
     4  C   -0.215509
     5  H    0.229953
     6  H    0.230219
     7  C   -0.298265
     8  H    0.185240
     9  H    0.180427
    10  C   -0.134438
    11  H    0.174494
    12  H    0.149740
    13  N   -0.583956
    14  C    0.204892
    15  C   -0.170049
    16  H    0.120744
    17  C   -0.149580
    18  H    0.142771
    19  C   -0.119015
    20  H    0.148866
    21  C   -0.210535
    22  H    0.143945
    23  C    0.159832
    24  C   -0.346560
    25  H    0.152667
    26  H    0.141487
    27  C   -0.347067
    28  H    0.171512
    29  H    0.163213
    30  C    0.163342
    31  C   -0.197703
    32  H    0.139091
    33  C   -0.119056
    34  H    0.145988
    35  C   -0.144563
    36  H    0.141346
    37  C   -0.178841
    38  H    0.118258
    39  C    0.235270
    40  H    0.431354
 Sum of Mulliken charges =   1.00000

 Dipole moment (field-independent basis, Debye):
    X=             18.7214    Y=             -8.1187    Z=              3.5848  Tot=             20.7184
 Quadrupole moment (field-independent basis, Debye-Ang):
   XX=             -8.1392   YY=            -79.6641   ZZ=           -102.0642
   XY=            -39.4723   XZ=             12.7550   YZ=             -3.6027

 Normal termination of Gaussian 16 at Sun Jul 18 17:24:26 2021.
 Gaussian 16:  ES64L-G16RevA.03 25-Dec-2016

 --------------------------------------------------------
 #p mp2/aug-cc-pVDZ scf=tight maxdisk=180GB geom=allcheck
 --------------------------------------------------------

 Structure from the checkpoint file:  "SET_328_BBB20_conf1.geo_060_180_180.chk"
 --------------------------------------------
 SET_328_BBB20_conf1.geo_060_180_180 geometry
 --------------------------------------------
 Charge =  1 Multiplicity = 1

                         Standard orientation:
 ---------------------------------------------------------------------
 Center     Atomic      Atomic             Coordinates (Angstroms)
 Number     Number       Type             X           Y           Z
 ---------------------------------------------------------------------
      1          7           0        4.683990   -2.008203    0.901289
      2          1           0        5.135732   -1.116651    0.657977
      3          1           0        5.365470   -2.752021    0.699719
      4          6           0        3.401709   -2.221254    0.150653
      5          1           0        3.038604   -3.208056    0.437085
      6          1           0        3.663087   -2.245837   -0.908195
      7          6           0        2.380158   -1.136771    0.453665
      8          1           0        2.783477   -0.157106    0.180947
      9          1           0        2.156047   -1.116212    1.524490
     10          6           0        1.082947   -1.407082   -0.315788
     11          1           0        0.688752   -2.374481    0.000384
     12          1           0        1.300526   -1.492330   -1.391993
     13          7           0        0.058735   -0.408257   -0.022569
     14          6           0        0.385671    0.952771   -0.325421
     15          6           0        1.131570    1.294089   -1.459965
     16          1           0        1.451110    0.516740   -2.145252
     17          6           0        1.454901    2.626527   -1.716266
     18          1           0        2.030841    2.879410   -2.601678
     19          6           0        1.027462    3.627699   -0.844141
     20          1           0        1.272964    4.666210   -1.039496
     21          6           0        0.286791    3.284278    0.287404
     22          1           0       -0.040081    4.053861    0.979003
     23          6           0       -0.030171    1.953500    0.567824
     24          6           0       -0.821193    1.554964    1.779920
     25          1           0       -0.905904    2.407071    2.460982
     26          1           0       -0.298028    0.753675    2.312700
     27          6           0       -2.231028    1.083549    1.411214
     28          1           0       -2.749447    1.917874    0.921739
     29          1           0       -2.790946    0.891125    2.333718
     30          6           0       -2.359347   -0.145316    0.526355
     31          6           0       -3.659448   -0.645576    0.374572
     32          1           0       -4.462123   -0.130885    0.897507
     33          6           0       -3.954895   -1.767264   -0.392317
     34          1           0       -4.975771   -2.123182   -0.471453
     35          6           0       -2.916541   -2.419475   -1.052572
     36          1           0       -3.111455   -3.290421   -1.671055
     37          6           0       -1.616094   -1.939182   -0.932221
     38          1           0       -0.824693   -2.435238   -1.480919
     39          6           0       -1.307290   -0.815944   -0.141016
     40          1           0        4.541549   -2.005394    1.921352
 ---------------------------------------------------------------------

 SCF Done:  E(RHF) =  -764.747537609     A.U. after   16 cycles
