 Gaussian 16, Revision A.03,

 ---------------------------------------------------------------
 #p b3lyp/6-31G(d) opt freq scrf=(iefpcm,read,solvent=n-octanol)
 ---------------------------------------------------------------

 ---------------------------------------------
 SET_328_BBB256_conf1.geo_180_075_075 geometry
 ---------------------------------------------
 Symbolic Z-matrix:
 Charge =  1 Multiplicity = 1

 SCF Done:  E(RB3LYP) =  -422.019195063     A.U. after   13 cycles
 SCF Done:  E(RB3LYP) =  -422.039418763     A.U. after   11 cycles
 SCF Done:  E(RB3LYP) =  -422.036754299     A.U. after   13 cycles
 SCF Done:  E(RB3LYP) =  -422.046061331     A.U. after   11 cycles
 SCF Done:  E(RB3LYP) =  -422.046067393     A.U. after   10 cycles
 SCF Done:  E(RB3LYP) =  -422.046511678     A.U. after   13 cycles
 SCF Done:  E(RB3LYP) =  -422.047039010     A.U. after   11 cycles
 SCF Done:  E(RB3LYP) =  -422.047287370     A.U. after   10 cycles
 SCF Done:  E(RB3LYP) =  -422.047468980     A.U. after   10 cycles
 SCF Done:  E(RB3LYP) =  -422.047504523     A.U. after    9 cycles
 SCF Done:  E(RB3LYP) =  -422.047494025     A.U. after    9 cycles
 SCF Done:  E(RB3LYP) =  -422.047510672     A.U. after    9 cycles
 SCF Done:  E(RB3LYP) =  -422.047501171     A.U. after    9 cycles
 SCF Done:  E(RB3LYP) =  -422.047503286     A.U. after    7 cycles
 SCF Done:  E(RB3LYP) =  -422.047510524     A.U. after    8 cycles
 SCF Done:  E(RB3LYP) =  -422.047505733     A.U. after    8 cycles
 Optimization completed.
    -- Stationary point found.
 Normal termination of Gaussian 16 at Sun Jul 18 15:12:13 2021.

 --------------------------------------------------------------------
 #P Geom=AllCheck Guess=TCheck SCRF=Check GenChk RB3LYP/6-31G(d) Freq
 --------------------------------------------------------------------

 Structure from the checkpoint file:  "SET_328_BBB256_conf1.geo_180_075_075.chk"
 ---------------------------------------------
 SET_328_BBB256_conf1.geo_180_075_075 geometry
 ---------------------------------------------
 Charge =  1 Multiplicity = 1

 SCF Done:  E(RB3LYP) =  -422.047505733     A.U. after    1 cycles

  Exact polarizability: 128.341  12.531 114.006  17.997 -12.409  79.480
 Approx polarizability: 149.298  15.482 148.607  27.119 -21.425 103.041

                      1                      2                      3
                      A                      A                      A
 Frequencies --     49.5153               110.8014               156.2088
 Red. masses --      4.0008                 3.7053                 1.6440
 Frc consts  --      0.0058                 0.0268                 0.0236
 IR Inten    --      3.3696                 4.0928                10.8382

                      4                      5                      6
                      A                      A                      A
 Frequencies --    207.6020               234.3224               253.8594
 Red. masses --      1.7906                 2.3223                 2.0375
 Frc consts  --      0.0455                 0.0751                 0.0774
 IR Inten    --      6.6749                18.9760                 1.4584

                      7                      8                      9
                      A                      A                      A
 Frequencies --    294.0867               375.4777               421.7988
 Red. masses --      2.5014                 2.2691                 3.5225
 Frc consts  --      0.1275                 0.1885                 0.3692
 IR Inten    --      2.7433                 6.3216                 6.4824

                     10                     11                     12
                      A                      A                      A
 Frequencies --    472.6398               522.0646               605.1728
 Red. masses --      3.2230                 3.5212                 3.1017
 Frc consts  --      0.4242                 0.5654                 0.6693
 IR Inten    --      5.0977                 1.0766                 2.9185

                     13                     14                     15
                      A                      A                      A
 Frequencies --    639.3837               750.9012               773.8784
 Red. masses --      6.8596                 2.7957                 1.2797
 Frc consts  --      1.6522                 0.9288                 0.4515
 IR Inten    --      3.8973                 6.2798                33.3210

                     16                     17                     18
                      A                      A                      A
 Frequencies --    789.4629               834.5189               850.8168
 Red. masses --      2.4743                 1.7798                 1.7116
 Frc consts  --      0.9086                 0.7303                 0.7300
 IR Inten    --     19.5881                16.7701                 7.3858

                     19                     20                     21
                      A                      A                      A
 Frequencies --    913.4754               977.7993               988.5079
 Red. masses --      1.2932                 1.5976                 1.6766
 Frc consts  --      0.6358                 0.8999                 0.9653
 IR Inten    --      0.1795                14.4095                 0.9215

                     22                     23                     24
                      A                      A                      A
 Frequencies --    997.6248              1015.2195              1020.3241
 Red. masses --      1.9250                 6.1214                 1.3163
 Frc consts  --      1.1288                 3.7173                 0.8074
 IR Inten    --     20.9083                17.3348                 0.1039

                     25                     26                     27
                      A                      A                      A
 Frequencies --   1034.4490              1066.2156              1077.6792
 Red. masses --      3.9496                 2.2048                 2.1109
 Frc consts  --      2.4901                 1.4768                 1.4444
 IR Inten    --     16.5989                 2.1301                 7.7564

                     28                     29                     30
                      A                      A                      A
 Frequencies --   1119.0903              1158.4562              1179.7189
 Red. masses --      1.4490                 1.2526                 1.3896
 Frc consts  --      1.0692                 0.9905                 1.1395
 IR Inten    --      1.6548                 9.5750                 3.7598

                     31                     32                     33
                      A                      A                      A
 Frequencies --   1185.8286              1242.5734              1274.5191
 Red. masses --      1.1320                 2.2741                 1.4257
 Frc consts  --      0.9378                 2.0687                 1.3645
 IR Inten    --      5.0832                12.8905                 1.3309

                     34                     35                     36
                      A                      A                      A
 Frequencies --   1309.2626              1326.5303              1344.9344
 Red. masses --      4.1502                 1.6477                 1.4453
 Frc consts  --      4.1916                 1.7083                 1.5404
 IR Inten    --      0.0558                 1.1321                16.1584

                     37                     38                     39
                      A                      A                      A
 Frequencies --   1388.2048              1422.8797              1457.9822
 Red. masses --      1.4452                 1.3697                 1.1248
 Frc consts  --      1.6409                 1.6338                 1.4087
 IR Inten    --      7.4258                 4.5105                28.4451

                     40                     41                     42
                      A                      A                      A
 Frequencies --   1479.2404              1486.4109              1509.4868
 Red. masses --      1.1627                 2.1626                 1.1191
 Frc consts  --      1.4990                 2.8151                 1.5024
 IR Inten    --      1.5591                34.8898                12.2879

                     43                     44                     45
                      A                      A                      A
 Frequencies --   1514.5151              1520.2498              1530.3783
 Red. masses --      1.1063                 2.0006                 1.0515
 Frc consts  --      1.4951                 2.7241                 1.4509
 IR Inten    --     22.0012                49.3480                19.5553

                     46                     47                     48
                      A                      A                      A
 Frequencies --   1551.1167              1576.7553              1634.5397
 Red. masses --      1.0839                 1.1170                 5.6425
 Frc consts  --      1.5365                 1.6362                 8.8820
 IR Inten    --     73.3134                49.2950                17.6272

                     49                     50                     51
                      A                      A                      A
 Frequencies --   1651.8348              1658.0772              3057.3223
 Red. masses --      4.7309                 1.1034                 1.0677
 Frc consts  --      7.6054                 1.7873                 5.8803
 IR Inten    --     79.0331                74.6310                 8.5773

                     52                     53                     54
                      A                      A                      A
 Frequencies --   3111.4326              3127.7091              3142.2494
 Red. masses --      1.0950                 1.0305                 1.0604
 Frc consts  --      6.2455                 5.9395                 6.1686
 IR Inten    --     11.8856                 7.3339                16.4622

                     55                     56                     57
                      A                      A                      A
 Frequencies --   3187.7185              3204.5417              3219.8522
 Red. masses --      1.0899                 1.1097                 1.0880
 Frc consts  --      6.5253                 6.7142                 6.6458
 IR Inten    --     32.7630                 2.7529                 2.4656

                     58                     59                     60
                      A                      A                      A
 Frequencies --   3224.3190              3228.5155              3228.9751
 Red. masses --      1.1093                 1.1094                 1.0927
 Frc consts  --      6.7947                 6.8129                 6.7126
 IR Inten    --      3.3740                 3.2491                24.1945

                     61                     62                     63
                      A                      A                      A
 Frequencies --   3240.3428              3443.8278              3496.8882
 Red. masses --      1.0982                 1.0577                 1.0902
 Frc consts  --      6.7935                 7.3909                 7.8544
 IR Inten    --     14.2476                96.9881               169.0906

 - Thermochemistry -
 -------------------
 Temperature   298.150 Kelvin.  Pressure   1.00000 Atm.
 Atom     1 has atomic number  6 and mass  12.00000

 Molecular mass:   137.10787 amu.
 Principal axes and moments of inertia in atomic units:
                           1         2         3
     Eigenvalues --   650.513182489.136692725.42603
           X            0.99998  -0.00547   0.00145
           Y            0.00546   0.99997   0.00545
           Z           -0.00148  -0.00544   0.99998
 This molecule is an asymmetric top.
 Rotational symmetry number  1.
 Warning -- assumption of classical behavior for rotation
           may cause significant error
 Rotational temperatures (Kelvin)      0.13315     0.03480     0.03178
 Rotational constants (GHZ):           2.77433     0.72505     0.66219
 Zero-point vibrational energy     549505.1 (Joules/Mol)
                                  131.33488 (Kcal/Mol)
 Warning -- explicit consideration of  12 degrees of freedom as
           vibrations may cause significant error
 Vibrational temperatures:     71.24   159.42   224.75   298.69   337.14
          (Kelvin)            365.25   423.13   540.23   606.87   680.02
                              751.13   870.71   919.93  1080.38  1113.44
                             1135.86  1200.69  1224.14  1314.29  1406.84
                             1422.24  1435.36  1460.67  1468.02  1488.34
                             1534.05  1550.54  1610.12  1666.76  1697.35
                             1706.14  1787.79  1833.75  1883.74  1908.58
                             1935.06  1997.32  2047.21  2097.71  2128.30
                             2138.61  2171.81  2179.05  2187.30  2201.87
                             2231.71  2268.60  2351.74  2376.62  2385.60
                             4398.80  4476.66  4500.08  4521.00  4586.42
                             4610.62  4632.65  4639.08  4645.11  4645.77
                             4662.13  4954.90  5031.24

 Zero-point correction=                           0.209295 (Hartree/Particle)
 Thermal correction to Energy=                    0.218570
 Thermal correction to Enthalpy=                  0.219514
 Thermal correction to Gibbs Free Energy=         0.174498
 Sum of electronic and zero-point Energies=           -421.838210
 Sum of electronic and thermal Energies=              -421.828936
 Sum of electronic and thermal Enthalpies=            -421.827992
 Sum of electronic and thermal Free Energies=         -421.873008

                     E (Thermal)             CV                S
                      KCal/Mol        Cal/Mol-Kelvin    Cal/Mol-Kelvin
 Total                  137.154             35.512             94.743
 Electronic               0.000              0.000              0.000
 Translational            0.889              2.981             40.659
 Rotational               0.889              2.981             29.869
 Vibrational            135.377             29.550             24.216
 Vibration     1          0.595              1.978              4.837
 Vibration     2          0.607              1.941              3.255
 Vibration     3          0.620              1.896              2.595
 Vibration     4          0.641              1.829              2.065
 Vibration     5          0.654              1.788              1.846
 Vibration     6          0.665              1.756              1.704
 Vibration     7          0.689              1.685              1.450
 Vibration     8          0.746              1.522              1.057
 Vibration     9          0.784              1.423              0.886
 Vibration    10          0.830              1.311              0.730
 Vibration    11          0.877              1.201              0.605
 Vibration    12          0.964              1.021              0.441

                           ! Non-Optimized Parameters !
 Normal termination of Gaussian 16 at Sun Jul 18 15:48:36 2021.

 ----------------------------------------------------------------------
 #p b3lyp/6-31G(d) scrf=(iefpcm,read,solvent=n-octanol) geom=allcheck g
 uess=read
 ----------------------------------------------------------------------

 Structure from the checkpoint file:  "SET_328_BBB256_conf1.geo_180_075_075.chk"
 ---------------------------------------------
 SET_328_BBB256_conf1.geo_180_075_075 geometry
 ---------------------------------------------
 Charge =  1 Multiplicity = 1

 SCF Done:  E(RB3LYP) =  -422.052216494     A.U. after    2 cycles
 Normal termination of Gaussian 16 at Sun Jul 18 15:50:04 2021.

 -----------------------------
 #p B3LYP/6-31G* geom=allcheck
 -----------------------------

 Structure from the checkpoint file:  "SET_328_BBB256_conf1.geo_180_075_075.chk"
 ---------------------------------------------
 SET_328_BBB256_conf1.geo_180_075_075 geometry
 ---------------------------------------------
 Charge =  1 Multiplicity = 1

 SCF Done:  E(RB3LYP) =  -421.955222419     A.U. after   14 cycles
 Normal termination of Gaussian 16 at Sun Jul 18 15:51:24 2021.
 Gaussian 16:  ES64L-G16RevA.03 25-Dec-2016

 --------------------------------------------------------
 #p mp2/aug-cc-pVDZ scf=tight maxdisk=180GB geom=allcheck
 --------------------------------------------------------

 Structure from the checkpoint file:  "SET_328_BBB256_conf1.geo_180_075_075.chk"
 ---------------------------------------------
 SET_328_BBB256_conf1.geo_180_075_075 geometry
 ---------------------------------------------
 Charge =  1 Multiplicity = 1

                         Standard orientation:
 ---------------------------------------------------------------------
 Center     Atomic      Atomic             Coordinates (Angstroms)
 Number     Number       Type             X           Y           Z
 ---------------------------------------------------------------------
      1          6           0        3.499589   -0.958387   -0.560247
      2          1           0        3.230859   -1.808911    0.063092
      3          1           0        4.328938   -0.411898   -0.115012
      4          1           0        3.760168   -1.290065   -1.563230
      5          7           0        2.318495   -0.041418   -0.643700
      6          1           0        1.536748   -0.528446   -1.100227
      7          6           0        1.889419    0.471139    0.708218
      8          1           0        2.742349    1.012752    1.114856
      9          1           0        1.684124   -0.407356    1.317228
     10          6           0        0.649842    1.349187    0.635786
     11          1           0        0.791178    2.187028   -0.054830
     12          1           0        0.532656    1.794584    1.632037
     13          6           0       -0.608531    0.577760    0.286802
     14          7           0       -0.696767   -0.668245    0.778570
     15          6           0       -1.806901   -1.370530    0.519385
     16          1           0       -1.841917   -2.376139    0.931859
     17          6           0       -2.872393   -0.877603   -0.232257
     18          1           0       -3.747826   -1.491456   -0.411454
     19          6           0       -2.771098    0.413163   -0.748464
     20          1           0       -3.570826    0.835119   -1.347102
     21          6           0       -1.619640    1.152851   -0.488226
     22          1           0       -1.502453    2.157817   -0.876563
     23          1           0        2.542189    0.749141   -1.260720
 ---------------------------------------------------------------------

 SCF Done:  E(RHF) =  -419.258543035     A.U. after   15 cycles
 E2 =    -0.1457711778D+01 EUMP2 =    -0.42071625481314D+03

 The electronic state is 1-A.
 Alpha  occ. eigenvalues --  -15.87097 -15.69865 -11.46143 -11.45470 -11.41739
 Alpha  occ. eigenvalues --  -11.40112 -11.39748 -11.38180 -11.36766 -11.36121
 Alpha  occ. eigenvalues --   -1.49197  -1.38951  -1.22955  -1.20788  -1.15539
 Alpha  occ. eigenvalues --   -1.12215  -1.04878  -0.98301  -0.95690  -0.94706
 Alpha  occ. eigenvalues --   -0.85442  -0.83333  -0.82886  -0.78856  -0.77002
 Alpha  occ. eigenvalues --   -0.75073  -0.74946  -0.73936  -0.71219  -0.70345
 Alpha  occ. eigenvalues --   -0.67929  -0.67820  -0.64864  -0.63287  -0.54452
 Alpha  occ. eigenvalues --   -0.50225  -0.46250
 Alpha virt. eigenvalues --   -0.09127  -0.06705  -0.06469  -0.05405  -0.04015
 Alpha virt. eigenvalues --   -0.03774  -0.03454  -0.03083  -0.02977  -0.02431
 Alpha virt. eigenvalues --   -0.01575  -0.01261  -0.00972  -0.00487   0.00385

 Mulliken charges:
               1
     1  C    0.765826
     2  H   -0.062870
     3  H   -0.061051
     4  H   -0.118996
     5  N   -0.692601
     6  H    0.218647
     7  C    1.168833
     8  H   -0.197490
     9  H   -0.158594
    10  C    0.224356
    11  H   -0.160361
    12  H    0.080006
    13  C    0.020121
    14  N   -0.675031
    15  C    0.415175
    16  H   -0.364154
    17  C    0.958719
    18  H   -0.401285
    19  C   -0.218515
    20  H   -0.392217
    21  C    1.038824
    22  H   -0.561263
    23  H    0.173920
 Sum of Mulliken charges =   1.00000

 Dipole moment (field-independent basis, Debye):
    X=              7.4080    Y=              0.4717    Z=             -3.0114  Tot=              8.0106
 Quadrupole moment (field-independent basis, Debye-Ang):
   XX=            -16.9761   YY=            -49.8498   ZZ=            -55.4350
   XY=             -0.0231   XZ=             -2.5116   YZ=             -0.1136

 Normal termination of Gaussian 16 at Sun Jul 18 15:58:58 2021.
