 Gaussian 16, Revision A.03,

 ---------------------------------------------------------------
 #p b3lyp/6-31G(d) opt freq scrf=(iefpcm,read,solvent=n-octanol)
 ---------------------------------------------------------------

 ---------------------------------------------
 SET_328_BBB256_conf1.geo_075_180_255 geometry
 ---------------------------------------------
 Symbolic Z-matrix:
 Charge =  1 Multiplicity = 1

 SCF Done:  E(RB3LYP) =  -422.019931748     A.U. after   13 cycles
 SCF Done:  E(RB3LYP) =  -422.038248725     A.U. after   11 cycles
 SCF Done:  E(RB3LYP) =  -422.031013486     A.U. after   12 cycles
 SCF Done:  E(RB3LYP) =  -422.043944714     A.U. after   10 cycles
 SCF Done:  E(RB3LYP) =  -422.044130614     A.U. after   10 cycles
 SCF Done:  E(RB3LYP) =  -422.044380573     A.U. after   10 cycles
 SCF Done:  E(RB3LYP) =  -422.044438551     A.U. after   10 cycles
 SCF Done:  E(RB3LYP) =  -422.044271229     A.U. after   11 cycles
 SCF Done:  E(RB3LYP) =  -422.044292049     A.U. after   10 cycles
 SCF Done:  E(RB3LYP) =  -422.044577716     A.U. after   11 cycles
 SCF Done:  E(RB3LYP) =  -422.045422067     A.U. after   10 cycles
 SCF Done:  E(RB3LYP) =  -422.045402590     A.U. after   10 cycles
 SCF Done:  E(RB3LYP) =  -422.045426550     A.U. after   10 cycles
 SCF Done:  E(RB3LYP) =  -422.045426047     A.U. after    9 cycles
 SCF Done:  E(RB3LYP) =  -422.045426495     A.U. after    8 cycles
 SCF Done:  E(RB3LYP) =  -422.045426549     A.U. after    7 cycles
 Optimization completed.
    -- Stationary point found.
 Normal termination of Gaussian 16 at Sun Jul 18 14:19:12 2021.

 --------------------------------------------------------------------
 #P Geom=AllCheck Guess=TCheck SCRF=Check GenChk RB3LYP/6-31G(d) Freq
 --------------------------------------------------------------------

 Structure from the checkpoint file:  "SET_328_BBB256_conf1.geo_075_180_255.chk"
 ---------------------------------------------
 SET_328_BBB256_conf1.geo_075_180_255 geometry
 ---------------------------------------------
 Charge =  1 Multiplicity = 1

 SCF Done:  E(RB3LYP) =  -422.045426549     A.U. after    1 cycles

  Exact polarizability: 144.844   2.811 114.793  -9.598   2.505  63.736
 Approx polarizability: 165.383   2.245 154.827 -13.968   4.953  80.574

 ******    1 imaginary frequencies (negative Signs) ******

                      1                      2                      3
                      A                      A                      A
 Frequencies --    -66.1382               105.2195               119.7702
 Red. masses --      2.5853                 2.8752                 3.6935
 Frc consts  --      0.0067                 0.0188                 0.0312
 IR Inten    --     10.9201                 3.3955                 9.2091

                      4                      5                      6
                      A                      A                      A
 Frequencies --    170.0256               219.3963               269.8427
 Red. masses --      2.4398                 1.3207                 2.7905
 Frc consts  --      0.0416                 0.0375                 0.1197
 IR Inten    --      5.8070                 1.7411                10.3831

                      7                      8                      9
                      A                      A                      A
 Frequencies --    298.8736               373.1172               418.7300
 Red. masses --      2.2912                 2.5340                 3.5556
 Frc consts  --      0.1206                 0.2078                 0.3673
 IR Inten    --      3.6397                 5.4845                 4.2810

                     10                     11                     12
                      A                      A                      A
 Frequencies --    446.1310               508.0873               621.4138
 Red. masses --      2.7719                 2.9382                 5.8385
 Frc consts  --      0.3251                 0.4469                 1.3284
 IR Inten    --      2.9167                 4.0250                 4.5395

                     13                     14                     15
                      A                      A                      A
 Frequencies --    651.9473               757.9933               775.7894
 Red. masses --      5.3545                 3.1678                 1.2034
 Frc consts  --      1.3409                 1.0724                 0.4267
 IR Inten    --      3.5283                 0.1725                38.8579

                     16                     17                     18
                      A                      A                      A
 Frequencies --    813.9219               855.3246               868.6225
 Red. masses --      1.3981                 3.3093                 1.4046
 Frc consts  --      0.5457                 1.4264                 0.6244
 IR Inten    --     18.3772                 0.8605                20.4928

                     19                     20                     21
                      A                      A                      A
 Frequencies --    906.5529               917.3671               984.5353
 Red. masses --      2.2402                 1.4398                 1.4021
 Frc consts  --      1.0847                 0.7139                 0.8008
 IR Inten    --      7.3696                 2.0366                 0.2455

                     22                     23                     24
                      A                      A                      A
 Frequencies --   1013.1276              1018.8367              1024.6887
 Red. masses --      6.4193                 1.3139                 2.4080
 Frc consts  --      3.8821                 0.8035                 1.4897
 IR Inten    --     10.3987                 0.3289                20.2525

                     25                     26                     27
                      A                      A                      A
 Frequencies --   1052.1938              1068.4600              1079.5556
 Red. masses --      1.8841                 2.6477                 2.2717
 Frc consts  --      1.2290                 1.7809                 1.5599
 IR Inten    --     16.3103                15.6788                 8.9099

                     28                     29                     30
                      A                      A                      A
 Frequencies --   1122.5818              1155.7149              1185.4307
 Red. masses --      1.4510                 1.3002                 1.1251
 Frc consts  --      1.0773                 1.0232                 0.9316
 IR Inten    --      3.0651                 2.0309                 4.6831

                     31                     32                     33
                      A                      A                      A
 Frequencies --   1199.2529              1247.0954              1287.4936
 Red. masses --      1.4837                 2.0779                 2.1012
 Frc consts  --      1.2572                 1.9040                 2.0521
 IR Inten    --      6.1922                 7.0188                 3.3483

                     34                     35                     36
                      A                      A                      A
 Frequencies --   1317.8312              1337.2111              1352.0988
 Red. masses --      2.8919                 1.4096                 1.2696
 Frc consts  --      2.9590                 1.4851                 1.3675
 IR Inten    --      0.7900                 9.4533                 1.9849

                     37                     38                     39
                      A                      A                      A
 Frequencies --   1364.3601              1412.9085              1460.8677
 Red. masses --      1.2791                 1.3472                 1.1589
 Frc consts  --      1.4029                 1.5846                 1.4572
 IR Inten    --      1.1022                 3.3653                 2.2978

                     40                     41                     42
                      A                      A                      A
 Frequencies --   1469.3380              1484.8368              1500.0645
 Red. masses --      1.2267                 2.1560                 1.2088
 Frc consts  --      1.5604                 2.8006                 1.6026
 IR Inten    --     17.5628                54.6724                19.6187

                     43                     44                     45
                      A                      A                      A
 Frequencies --   1510.9418              1514.8138              1523.7269
 Red. masses --      1.1054                 1.0936                 1.8471
 Frc consts  --      1.4868                 1.4785                 2.5267
 IR Inten    --      8.5911                12.9369                15.7964

                     46                     47                     48
                      A                      A                      A
 Frequencies --   1529.1822              1532.0785              1634.4777
 Red. masses --      1.1252                 1.1204                 5.8121
 Frc consts  --      1.5502                 1.5494                 9.1483
 IR Inten    --     41.8668                39.5231                21.4603

                     49                     50                     51
                      A                      A                      A
 Frequencies --   1652.3252              1683.3310              3089.8380
 Red. masses --      5.4474                 1.0656                 1.0616
 Frc consts  --      8.7625                 1.7790                 5.9715
 IR Inten    --     64.3153               141.3648                18.8082

                     52                     53                     54
                      A                      A                      A
 Frequencies --   3127.1882              3128.2775              3144.7756
 Red. masses --      1.0566                 1.0371                 1.0975
 Frc consts  --      6.0881                 5.9797                 6.3946
 IR Inten    --     10.9009                 3.8313                16.8455

                     55                     56                     57
                      A                      A                      A
 Frequencies --   3192.1400              3198.4959              3216.2376
 Red. masses --      1.1085                 1.0897                 1.0881
 Frc consts  --      6.6550                 6.5681                 6.6316
 IR Inten    --      5.1931                32.8501                 4.7579

                     58                     59                     60
                      A                      A                      A
 Frequencies --   3224.0250              3228.8464              3232.2598
 Red. masses --      1.1095                 1.0938                 1.1092
 Frc consts  --      6.7948                 6.7185                 6.8278
 IR Inten    --      3.6191                20.4509                 4.8962

                     61                     62                     63
                      A                      A                      A
 Frequencies --   3243.5702              3394.6106              3463.3628
 Red. masses --      1.0969                 1.0648                 1.0837
 Frc consts  --      6.7995                 7.2293                 7.6585
 IR Inten    --     16.6043               165.6982               144.4616

 - Thermochemistry -
 -------------------
 Temperature   298.150 Kelvin.  Pressure   1.00000 Atm.
 Atom     1 has atomic number  6 and mass  12.00000

 Molecular mass:   137.10787 amu.
 Principal axes and moments of inertia in atomic units:
                           1         2         3
     Eigenvalues --   456.284322961.238313302.46169
           X            1.00000   0.00256  -0.00128
           Y           -0.00257   0.99998  -0.00541
           Z            0.00126   0.00541   0.99998
 This molecule is an asymmetric top.
 Rotational symmetry number  1.
 Warning -- assumption of classical behavior for rotation
           may cause significant error
 Rotational temperatures (Kelvin)      0.18982     0.02925     0.02623
 Rotational constants (GHZ):           3.95530     0.60945     0.54648
    1 imaginary frequencies ignored.
 Zero-point vibrational energy     548494.5 (Joules/Mol)
                                  131.09333 (Kcal/Mol)
 Warning -- explicit consideration of  10 degrees of freedom as
           vibrations may cause significant error
 Vibrational temperatures:    151.39   172.32   244.63   315.66   388.24
          (Kelvin)            430.01   536.83   602.46   641.88   731.02
                              894.08   938.01  1090.58  1116.19  1171.05
                             1230.62  1249.75  1304.33  1319.89  1416.53
                             1457.66  1465.88  1474.30  1513.87  1537.28
                             1553.24  1615.14  1662.82  1705.57  1725.46
                             1794.29  1852.42  1896.07  1923.95  1945.37
                             1963.01  2032.86  2101.86  2114.05  2136.35
                             2158.26  2173.91  2179.48  2192.30  2200.15
                             2204.32  2351.65  2377.33  2421.94  4445.59
                             4499.33  4500.89  4524.63  4592.78  4601.92
                             4627.45  4638.65  4645.59  4650.50  4666.77
                             4884.09  4983.01

 Zero-point correction=                           0.208911 (Hartree/Particle)
 Thermal correction to Energy=                    0.217488
 Thermal correction to Enthalpy=                  0.218432
 Thermal correction to Gibbs Free Energy=         0.175228
 Sum of electronic and zero-point Energies=           -421.836516
 Sum of electronic and thermal Energies=              -421.827939
 Sum of electronic and thermal Enthalpies=            -421.826995
 Sum of electronic and thermal Free Energies=         -421.870198

                     E (Thermal)             CV                S
                      KCal/Mol        Cal/Mol-Kelvin    Cal/Mol-Kelvin
 Total                  136.476             33.579             90.930
 Electronic               0.000              0.000              0.000
 Translational            0.889              2.981             40.659
 Rotational               0.889              2.981             29.880
 Vibrational            134.698             27.618             20.391
 Vibration     1          0.605              1.945              3.355
 Vibration     2          0.609              1.933              3.104
 Vibration     3          0.625              1.879              2.435
 Vibration     4          0.647              1.812              1.964
 Vibration     5          0.674              1.729              1.597
 Vibration     6          0.692              1.676              1.423
 Vibration     7          0.745              1.527              1.067
 Vibration     8          0.782              1.430              0.896
 Vibration     9          0.805              1.369              0.808
 Vibration    10          0.863              1.232              0.638

                           ! Non-Optimized Parameters !
 Normal termination of Gaussian 16 at Sun Jul 18 14:27:58 2021.

 ----------------------------------------------------------------------
 #p b3lyp/6-31G(d) scrf=(iefpcm,read,solvent=n-octanol) geom=allcheck g
 uess=read
 ----------------------------------------------------------------------

 Structure from the checkpoint file:  "SET_328_BBB256_conf1.geo_075_180_255.chk"
 ---------------------------------------------
 SET_328_BBB256_conf1.geo_075_180_255 geometry
 ---------------------------------------------
 Charge =  1 Multiplicity = 1

 SCF Done:  E(RB3LYP) =  -422.050107256     A.U. after    1 cycles
 Normal termination of Gaussian 16 at Sun Jul 18 14:28:17 2021.

 -----------------------------
 #p B3LYP/6-31G* geom=allcheck
 -----------------------------

 Structure from the checkpoint file:  "SET_328_BBB256_conf1.geo_075_180_255.chk"
 ---------------------------------------------
 SET_328_BBB256_conf1.geo_075_180_255 geometry
 ---------------------------------------------
 Charge =  1 Multiplicity = 1

 SCF Done:  E(RB3LYP) =  -421.948923227     A.U. after   14 cycles
 Normal termination of Gaussian 16 at Sun Jul 18 14:29:05 2021.
 Gaussian 16:  ES64L-G16RevA.03 25-Dec-2016

 --------------------------------------------------------
 #p mp2/aug-cc-pVDZ scf=tight maxdisk=180GB geom=allcheck
 --------------------------------------------------------

 Structure from the checkpoint file:  "SET_328_BBB256_conf1.geo_075_180_255.chk"
 ---------------------------------------------
 SET_328_BBB256_conf1.geo_075_180_255 geometry
 ---------------------------------------------
 Charge =  1 Multiplicity = 1

                         Standard orientation:
 ---------------------------------------------------------------------
 Center     Atomic      Atomic             Coordinates (Angstroms)
 Number     Number       Type             X           Y           Z
 ---------------------------------------------------------------------
      1          6           0        3.813553    0.699376    0.116232
      2          1           0        3.339960    1.395060   -0.571768
      3          1           0        4.855628    0.547305   -0.156830
      4          1           0        3.739886    1.068379    1.136820
      5          7           0        3.102374   -0.614716    0.038118
      6          1           0        3.578288   -1.300584    0.644521
      7          6           0        1.646615   -0.552772    0.420530
      8          1           0        1.608424   -0.197519    1.451235
      9          1           0        1.262603   -1.571712    0.384681
     10          6           0        0.841602    0.333749   -0.520443
     11          1           0        1.039770    0.028876   -1.554179
     12          1           0        1.131373    1.381114   -0.424149
     13          6           0       -0.639940    0.185720   -0.243863
     14          7           0       -1.114934   -1.069836   -0.241084
     15          6           0       -2.423709   -1.241889   -0.023985
     16          1           0       -2.776482   -2.269384   -0.029572
     17          6           0       -3.314680   -0.191313    0.197552
     18          1           0       -4.366060   -0.391189    0.364889
     19          6           0       -2.812566    1.108120    0.199778
     20          1           0       -3.466654    1.955923    0.372505
     21          6           0       -1.450189    1.301027   -0.022205
     22          1           0       -1.017342    2.295340   -0.027880
     23          1           0        3.194411   -1.001856   -0.911078
 ---------------------------------------------------------------------

 SCF Done:  E(RHF) =  -419.252002176     A.U. after   15 cycles
 E2 =    -0.1457926575D+01 EUMP2 =    -0.42070992875033D+03

 The electronic state is 1-A.
 Alpha  occ. eigenvalues --  -15.87838 -15.68702 -11.46646 -11.45768 -11.40842
 Alpha  occ. eigenvalues --  -11.39778 -11.38954 -11.37105 -11.35842 -11.35086
 Alpha  occ. eigenvalues --   -1.49791  -1.37862  -1.22736  -1.19761  -1.15847
 Alpha  occ. eigenvalues --   -1.12493  -1.03975  -0.97278  -0.96154  -0.92754
 Alpha  occ. eigenvalues --   -0.88812  -0.82991  -0.81260  -0.79559  -0.76164
 Alpha  occ. eigenvalues --   -0.75536  -0.75142  -0.73496  -0.70581  -0.69733
 Alpha  occ. eigenvalues --   -0.67742  -0.66949  -0.63899  -0.62694  -0.53323
 Alpha  occ. eigenvalues --   -0.49019  -0.45261
 Alpha virt. eigenvalues --   -0.09610  -0.07114  -0.06966  -0.05504  -0.03865
 Alpha virt. eigenvalues --   -0.03577  -0.03472  -0.03214  -0.02496  -0.01728
 Alpha virt. eigenvalues --   -0.01487  -0.01450  -0.00541   0.00280   0.00556

 Mulliken charges:
               1
     1  C    0.865055
     2  H   -0.079130
     3  H   -0.122558
     4  H   -0.066463
     5  N   -0.611039
     6  H    0.165586
     7  C    0.977769
     8  H   -0.234925
     9  H   -0.111866
    10  C    0.398988
    11  H   -0.037959
    12  H   -0.217351
    13  C    0.101246
    14  N   -0.706395
    15  C    0.442309
    16  H   -0.353745
    17  C    0.935896
    18  H   -0.398131
    19  C   -0.197047
    20  H   -0.390432
    21  C    1.025773
    22  H   -0.559642
    23  H    0.174060
 Sum of Mulliken charges =   1.00000

 Dipole moment (field-independent basis, Debye):
    X=             10.4860    Y=             -0.0681    Z=              0.6475  Tot=             10.5062
 Quadrupole moment (field-independent basis, Debye-Ang):
   XX=              1.5970   YY=            -50.7855   ZZ=            -59.2099
   XY=             -5.5879   XZ=             -0.9558   YZ=             -0.3183

 Normal termination of Gaussian 16 at Sun Jul 18 14:35:58 2021.
