 Gaussian 16, Revision A.03,

 ---------------------------------------------------------------
 #p b3lyp/6-31G(d) opt freq scrf=(iefpcm,read,solvent=n-octanol)
 ---------------------------------------------------------------

 ---------------------------------------------
 SET_328_BBB324_conf1.geo_180_300_300 geometry
 ---------------------------------------------
 Symbolic Z-matrix:
 Charge =  1 Multiplicity = 1

 SCF Done:  E(RB3LYP) =  -1692.65406286     A.U. after   14 cycles
 SCF Done:  E(RB3LYP) =  -1692.69910126     A.U. after   12 cycles
 SCF Done:  E(RB3LYP) =  -1692.71894745     A.U. after   12 cycles
 SCF Done:  E(RB3LYP) =  -1692.72108288     A.U. after   11 cycles
 SCF Done:  E(RB3LYP) =  -1692.72159287     A.U. after   11 cycles
 SCF Done:  E(RB3LYP) =  -1692.72195820     A.U. after   11 cycles
 SCF Done:  E(RB3LYP) =  -1692.72227694     A.U. after   11 cycles
 SCF Done:  E(RB3LYP) =  -1692.72224604     A.U. after   13 cycles
 SCF Done:  E(RB3LYP) =  -1692.72291225     A.U. after   11 cycles
 SCF Done:  E(RB3LYP) =  -1692.72324946     A.U. after   11 cycles
 SCF Done:  E(RB3LYP) =  -1692.72382369     A.U. after   10 cycles
 SCF Done:  E(RB3LYP) =  -1692.72381288     A.U. after    8 cycles
 SCF Done:  E(RB3LYP) =  -1692.72381359     A.U. after    9 cycles
 SCF Done:  E(RB3LYP) =  -1692.72381387     A.U. after    8 cycles
 SCF Done:  E(RB3LYP) =  -1692.72381387     A.U. after    7 cycles
 SCF Done:  E(RB3LYP) =  -1692.72381388     A.U. after    6 cycles
 Optimization completed.
    -- Stationary point found.
 Normal termination of Gaussian 16 at Sun Jul 18 20:43:10 2021.

 --------------------------------------------------------------------
 #P Geom=AllCheck Guess=TCheck SCRF=Check GenChk RB3LYP/6-31G(d) Freq
 --------------------------------------------------------------------

 Structure from the checkpoint file:  "SET_328_BBB324_conf1.geo_180_300_300.chk"
 ---------------------------------------------
 SET_328_BBB324_conf1.geo_180_300_300 geometry
 ---------------------------------------------
 Charge =  1 Multiplicity = 1

 SCF Done:  E(RB3LYP) =  -1692.72381388     A.U. after    1 cycles

  Exact polarizability: 377.955  -2.631 290.888  20.463  -5.733 170.388
 Approx polarizability: 430.774 -21.912 381.536  23.818 -10.226 229.435

                      1                      2                      3
                      A                      A                      A
 Frequencies --     16.8264                25.2717                39.7658
 Red. masses --      4.1537                 5.7683                 7.1457
 Frc consts  --      0.0007                 0.0022                 0.0067
 IR Inten    --      2.7799                 1.6518                 1.8453

                      4                      5                      6
                      A                      A                      A
 Frequencies --     48.8398                71.3314                74.9605
 Red. masses --      7.8092                 6.1955                 6.0061
 Frc consts  --      0.0110                 0.0186                 0.0199
 IR Inten    --      2.0153                 1.2159                 0.2026

                      7                      8                      9
                      A                      A                      A
 Frequencies --     85.3608                99.7095               117.5601
 Red. masses --      5.4307                 3.7131                 2.1895
 Frc consts  --      0.0233                 0.0218                 0.0178
 IR Inten    --      2.9862                 3.3881                 0.0192

                     10                     11                     12
                      A                      A                      A
 Frequencies --    133.3779               151.0170               172.4546
 Red. masses --      1.7674                 4.3527                 5.0930
 Frc consts  --      0.0185                 0.0585                 0.0892
 IR Inten    --      0.7842                12.4260                 2.1378

                     13                     14                     15
                      A                      A                      A
 Frequencies --    191.9680               198.1900               205.5755
 Red. masses --      3.5945                 4.8380                 2.3407
 Frc consts  --      0.0780                 0.1120                 0.0583
 IR Inten    --      3.2252                 0.9941                 6.0915

                     16                     17                     18
                      A                      A                      A
 Frequencies --    212.9009               216.2107               237.2014
 Red. masses --      4.2765                 1.7947                 4.3493
 Frc consts  --      0.1142                 0.0494                 0.1442
 IR Inten    --      0.3286                 4.8039                 6.0209

                     19                     20                     21
                      A                      A                      A
 Frequencies --    255.8963               286.7461               297.3120
 Red. masses --      4.7917                 1.2090                 4.8010
 Frc consts  --      0.1849                 0.0586                 0.2500
 IR Inten    --      4.0243               137.8553                 6.6733

                     22                     23                     24
                      A                      A                      A
 Frequencies --    305.3432               321.4934               331.0546
 Red. masses --      5.2086                 3.5299                 5.2737
 Frc consts  --      0.2861                 0.2150                 0.3405
 IR Inten    --      0.4413                 4.8950                18.3673

                     25                     26                     27
                      A                      A                      A
 Frequencies --    361.4647               368.8625               374.7371
 Red. masses --      3.6573                 3.1305                 5.6576
 Frc consts  --      0.2815                 0.2510                 0.4681
 IR Inten    --     13.2073                 4.9750                 8.0244

                     28                     29                     30
                      A                      A                      A
 Frequencies --    395.5207               411.6884               434.7959
 Red. masses --      4.2401                 6.0783                 4.5381
 Frc consts  --      0.3908                 0.6070                 0.5055
 IR Inten    --     22.6410                 5.9386                 2.0112

                     31                     32                     33
                      A                      A                      A
 Frequencies --    437.7743               452.3978               484.7458
 Red. masses --      4.9016                 6.8958                 6.6938
 Frc consts  --      0.5535                 0.8315                 0.9267
 IR Inten    --      2.9316                 8.6230                 3.1218

                     34                     35                     36
                      A                      A                      A
 Frequencies --    521.4326               536.1307               548.8638
 Red. masses --      4.5303                 1.3391                 5.3178
 Frc consts  --      0.7257                 0.2268                 0.9439
 IR Inten    --      1.5196               150.8661                 2.1329

                     37                     38                     39
                      A                      A                      A
 Frequencies --    570.4364               571.0776               610.7301
 Red. masses --      3.8987                 3.3535                 4.7949
 Frc consts  --      0.7474                 0.6444                 1.0537
 IR Inten    --     11.3113                55.3294                 4.3159

                     40                     41                     42
                      A                      A                      A
 Frequencies --    618.2167               652.1417               672.8007
 Red. masses --      3.6094                 3.7840                 5.3755
 Frc consts  --      0.8128                 0.9482                 1.4336
 IR Inten    --     32.2417                35.1254                18.5047

                     43                     44                     45
                      A                      A                      A
 Frequencies --    684.5288               708.8448               723.8598
 Red. masses --      5.9278                 4.2638                 1.3177
 Frc consts  --      1.6366                 1.2623                 0.4068
 IR Inten    --      2.7084                39.1846                97.6615

                     46                     47                     48
                      A                      A                      A
 Frequencies --    731.9967               751.2923               779.0276
 Red. masses --      6.2983                 6.5640                 2.6746
 Frc consts  --      1.9884                 2.1829                 0.9563
 IR Inten    --     24.0351                15.8931                20.1041

                     49                     50                     51
                      A                      A                      A
 Frequencies --    785.9323               800.3213               811.7200
 Red. masses --      7.4740                 8.5576                 2.1189
 Frc consts  --      2.7200                 3.2295                 0.8226
 IR Inten    --     11.4992                13.4439                30.9083

                     52                     53                     54
                      A                      A                      A
 Frequencies --    811.9909               853.9777               876.3487
 Red. masses --      6.5254                 1.4549                 2.5829
 Frc consts  --      2.5349                 0.6251                 1.1687
 IR Inten    --     56.4248                 2.4414                13.4819

                     55                     56                     57
                      A                      A                      A
 Frequencies --    921.1059               923.9912               950.6008
 Red. masses --      1.4765                 2.9743                 4.1126
 Frc consts  --      0.7381                 1.4961                 2.1896
 IR Inten    --      0.6423                 0.4124                47.6887

                     58                     59                     60
                      A                      A                      A
 Frequencies --    956.8403               962.8066               986.6409
 Red. masses --      2.0797                 6.7256                 5.2057
 Frc consts  --      1.1219                 3.6733                 2.9857
 IR Inten    --      9.7305                44.4787                27.5680

                     61                     62                     63
                      A                      A                      A
 Frequencies --   1001.5420              1021.1777              1025.5060
 Red. masses --      1.3080                 4.3261                 1.6388
 Frc consts  --      0.7730                 2.6580                 1.0154
 IR Inten    --      0.5175                 5.1463                 3.4726

                     64                     65                     66
                      A                      A                      A
 Frequencies --   1036.3264              1077.6318              1078.4577
 Red. masses --      4.7030                 5.1859                 3.1692
 Frc consts  --      2.9759                 3.5482                 2.1717
 IR Inten    --     45.6086               175.0604                44.8187

                     67                     68                     69
                      A                      A                      A
 Frequencies --   1100.3302              1114.6951              1117.2379
 Red. masses --      2.9273                 2.9404                 1.7576
 Frc consts  --      2.0882                 2.1526                 1.2926
 IR Inten    --     11.5514                51.7928                25.0710

                     70                     71                     72
                      A                      A                      A
 Frequencies --   1154.0054              1161.2293              1167.3007
 Red. masses --      1.8077                 1.8571                 1.5737
 Frc consts  --      1.4184                 1.4755                 1.2634
 IR Inten    --     66.0827                13.0509                 2.8099

                     73                     74                     75
                      A                      A                      A
 Frequencies --   1188.3655              1200.6911              1213.9673
 Red. masses --      1.4605                 2.1265                 1.9404
 Frc consts  --      1.2152                 1.8062                 1.6848
 IR Inten    --     17.7005                60.8310                76.3131

                     76                     77                     78
                      A                      A                      A
 Frequencies --   1217.6842              1229.9425              1245.2984
 Red. masses --      1.6385                 1.8290                 1.7947
 Frc consts  --      1.4314                 1.6302                 1.6398
 IR Inten    --     37.1155                37.0277                16.6086

                     79                     80                     81
                      A                      A                      A
 Frequencies --   1250.8258              1267.3672              1291.4622
 Red. masses --      3.0428                 2.6849                 1.4752
 Frc consts  --      2.8049                 2.5409                 1.4497
 IR Inten    --     76.2093                72.1450                87.5319

                     82                     83                     84
                      A                      A                      A
 Frequencies --   1307.0594              1310.9644              1335.8557
 Red. masses --      2.3635                 3.9618                 8.4961
 Frc consts  --      2.3790                 4.0117                 8.9329
 IR Inten    --     11.4728                50.6776                20.0989

                     85                     86                     87
                      A                      A                      A
 Frequencies --   1362.0151              1371.0004              1381.8073
 Red. masses --      3.4104                 4.1288                 1.5283
 Frc consts  --      3.7275                 4.5725                 1.7193
 IR Inten    --     83.7319                 1.0652                60.0736

                     88                     89                     90
                      A                      A                      A
 Frequencies --   1410.8654              1433.0164              1438.0630
 Red. masses --      1.2452                 1.3967                 1.9685
 Frc consts  --      1.4604                 1.6899                 2.3986
 IR Inten    --    102.9973                41.7177               204.2403

                     91                     92                     93
                      A                      A                      A
 Frequencies --   1444.8514              1461.4310              1465.9387
 Red. masses --      1.5830                 2.8373                 1.4929
 Frc consts  --      1.9471                 3.5704                 1.8903
 IR Inten    --     28.1976               102.6428                24.9333

                     94                     95                     96
                      A                      A                      A
 Frequencies --   1486.4532              1492.0862              1494.4340
 Red. masses --      2.2583                 2.3514                 1.4838
 Frc consts  --      2.9399                 3.0844                 1.9525
 IR Inten    --     72.8113                48.0491                24.7082

                     97                     98                     99
                      A                      A                      A
 Frequencies --   1508.1550              1515.4948              1523.3396
 Red. masses --      1.0721                 1.0823                 1.1417
 Frc consts  --      1.4367                 1.4645                 1.5609
 IR Inten    --      7.4738                 1.9378                14.6486

                    100                    101                    102
                      A                      A                      A
 Frequencies --   1526.9520              1532.3066              1534.3437
 Red. masses --      2.0035                 1.1302                 1.2397
 Frc consts  --      2.7523                 1.5634                 1.7195
 IR Inten    --      7.7711                16.2298                70.7198

                    103                    104                    105
                      A                      A                      A
 Frequencies --   1549.3607              1582.0044              1601.8549
 Red. masses --      7.3404                 5.7079                 8.1977
 Frc consts  --     10.3819                 8.4167                12.3933
 IR Inten    --     47.4172               167.1774                31.1010

                    106                    107                    108
                      A                      A                      A
 Frequencies --   1624.8829              1645.1068              1705.9309
 Red. masses --      6.3160                 6.8826                 7.5995
 Frc consts  --      9.8251                10.9747                13.0304
 IR Inten    --     12.1645                58.9291                32.3856

                    109                    110                    111
                      A                      A                      A
 Frequencies --   1754.2126              3058.8274              3071.6144
 Red. masses --     11.2082                 1.0552                 1.0412
 Frc consts  --     20.3213                 5.8170                 5.7877
 IR Inten    --    490.5793                36.7795                44.2670

                    112                    113                    114
                      A                      A                      A
 Frequencies --   3088.2976              3098.8892              3108.5269
 Red. masses --      1.0344                 1.0681                 1.1104
 Frc consts  --      5.8129                 6.0432                 6.3219
 IR Inten    --     13.8282                 7.4527                49.7084

                    115                    116                    117
                      A                      A                      A
 Frequencies --   3141.4248              3166.0292              3173.0974
 Red. masses --      1.0999                 1.1041                 1.1041
 Frc consts  --      6.3953                 6.5206                 6.5497
 IR Inten    --     23.1084                16.8946                18.0521

                    118                    119                    120
                      A                      A                      A
 Frequencies --   3186.4877              3213.2059              3235.0385
 Red. masses --      1.0989                 1.1002                 1.0885
 Frc consts  --      6.5739                 6.6928                 6.7118
 IR Inten    --      6.1828                 0.6721                 3.0455

                    121                    122                    123
                      A                      A                      A
 Frequencies --   3246.1886              3258.5327              3347.3106
 Red. masses --      1.0940                 1.0956                 1.1020
 Frc consts  --      6.7921                 6.8538                 7.2750
 IR Inten    --      2.0084                 1.3145                43.5356

                    124                    125                    126
                      A                      A                      A
 Frequencies --   3532.5265              3649.2698              3767.2472
 Red. masses --      1.0854                 1.0648                 1.0670
 Frc consts  --      7.9804                 8.3550                 8.9220
 IR Inten    --    540.1468               120.2385               109.6636

 - Thermochemistry -
 -------------------
 Temperature   298.150 Kelvin.  Pressure   1.00000 Atm.
 Atom     1 has atomic number  6 and mass  12.00000

 Molecular mass:   390.09691 amu.
 Principal axes and moments of inertia in atomic units:
                           1         2         3
     Eigenvalues --  4606.41145********************
           X            0.99978   0.02075  -0.00227
           Y           -0.02075   0.99978  -0.00143
           Z            0.00224   0.00147   1.00000
 This molecule is an asymmetric top.
 Rotational symmetry number  1.
 Warning -- assumption of classical behavior for rotation
           may cause significant error
 Rotational temperatures (Kelvin)      0.01880     0.00427     0.00377
 Rotational constants (GHZ):           0.39179     0.08894     0.07851
 Zero-point vibrational energy     893881.7 (Joules/Mol)
                                  213.64286 (Kcal/Mol)
 Warning -- explicit consideration of  40 degrees of freedom as
           vibrations may cause significant error
 Vibrational temperatures:     24.21    36.36    57.21    70.27   102.63
          (Kelvin)            107.85   122.82   143.46   169.14   191.90
                              217.28   248.12   276.20   285.15   295.78
                              306.32   311.08   341.28   368.18   412.56
                              427.77   439.32   462.56   476.31   520.07
                              530.71   539.16   569.07   592.33   625.57
                              629.86   650.90   697.44   750.23   771.37
                              789.69   820.73   821.65   878.70   889.48
                              938.29   968.01   984.88  1019.87  1041.47
                             1053.18  1080.94  1120.85  1130.78  1151.48
                             1167.88  1168.27  1228.68  1260.87  1325.27
                             1329.42  1367.70  1376.68  1385.26  1419.56
                             1441.00  1469.25  1475.47  1491.04  1550.47
                             1551.66  1583.13  1603.80  1607.46  1660.36
                             1670.75  1679.49  1709.79  1727.53  1746.63
                             1751.98  1769.61  1791.71  1799.66  1823.46
                             1858.13  1880.57  1886.19  1922.00  1959.64
                             1972.56  1988.11  2029.92  2061.79  2069.05
                             2078.82  2102.67  2109.16  2138.67  2146.78
                             2150.16  2169.90  2180.46  2191.75  2196.94
                             2204.65  2207.58  2229.18  2276.15  2304.71
                             2337.84  2366.94  2454.45  2523.92  4400.97
                             4419.37  4443.37  4458.61  4472.48  4519.81
                             4555.21  4565.38  4584.65  4623.09  4654.50
                             4670.54  4688.30  4816.03  5082.52  5250.49
                             5420.23

 Zero-point correction=                           0.340462 (Hartree/Particle)
 Thermal correction to Energy=                    0.364396
 Thermal correction to Enthalpy=                  0.365340
 Thermal correction to Gibbs Free Energy=         0.285532
 Sum of electronic and zero-point Energies=          -1692.383352
 Sum of electronic and thermal Energies=             -1692.359418
 Sum of electronic and thermal Enthalpies=           -1692.358474
 Sum of electronic and thermal Free Energies=        -1692.438281

                     E (Thermal)             CV                S
                      KCal/Mol        Cal/Mol-Kelvin    Cal/Mol-Kelvin
 Total                  228.662             91.250            167.970
 Electronic               0.000              0.000              0.000
 Translational            0.889              2.981             43.776
 Rotational               0.889              2.981             36.017
 Vibrational            226.885             85.289             88.177
 Vibration     1          0.593              1.986              6.977
 Vibration     2          0.593              1.985              6.170
 Vibration     3          0.594              1.981              5.271
 Vibration     4          0.595              1.978              4.864
 Vibration     5          0.598              1.968              4.116
 Vibration     6          0.599              1.966              4.019
 Vibration     7          0.601              1.959              3.764
 Vibration     8          0.604              1.949              3.460
 Vibration     9          0.608              1.935              3.140
 Vibration    10          0.613              1.920              2.897
 Vibration    11          0.618              1.902              2.659
 Vibration    12          0.626              1.876              2.409
 Vibration    13          0.634              1.851              2.209
 Vibration    14          0.637              1.842              2.150
 Vibration    15          0.640              1.832              2.083
 Vibration    16          0.644              1.821              2.019
 Vibration    17          0.645              1.816              1.991
 Vibration    18          0.656              1.784              1.824
 Vibration    19          0.666              1.753              1.690
 Vibration    20          0.684              1.698              1.493
 Vibration    21          0.691              1.679              1.432
 Vibration    22          0.696              1.664              1.387
 Vibration    23          0.707              1.632              1.302
 Vibration    24          0.713              1.613              1.255
 Vibration    25          0.736              1.552              1.116
 Vibration    26          0.741              1.536              1.085
 Vibration    27          0.746              1.524              1.060
 Vibration    28          0.762              1.480              0.979
 Vibration    29          0.776              1.445              0.921
 Vibration    30          0.795              1.394              0.843
 Vibration    31          0.798              1.388              0.834
 Vibration    32          0.811              1.356              0.789
 Vibration    33          0.841              1.284              0.697
 Vibration    34          0.876              1.203              0.607
 Vibration    35          0.891              1.170              0.574
 Vibration    36          0.904              1.142              0.547
 Vibration    37          0.927              1.095              0.503
 Vibration    38          0.927              1.094              0.502
 Vibration    39          0.970              1.009              0.432
 Vibration    40          0.978              0.993              0.419

                           ! Non-Optimized Parameters !
 Normal termination of Gaussian 16 at Sun Jul 18 22:09:36 2021.

 ----------------------------------------------------------------------
 #p b3lyp/6-31G(d) scrf=(iefpcm,read,solvent=n-octanol) geom=allcheck g
 uess=read
 ----------------------------------------------------------------------

 Structure from the checkpoint file:  "SET_328_BBB324_conf1.geo_180_300_300.chk"
 ---------------------------------------------
 SET_328_BBB324_conf1.geo_180_300_300 geometry
 ---------------------------------------------
 Charge =  1 Multiplicity = 1

 SCF Done:  E(RB3LYP) =  -1692.72381388     A.U. after    1 cycles
 Normal termination of Gaussian 16 at Sun Jul 18 22:12:04 2021.

 -----------------------------
 #p B3LYP/6-31G* geom=allcheck
 -----------------------------

 Structure from the checkpoint file:  "SET_328_BBB324_conf1.geo_180_300_300.chk"
 ---------------------------------------------
 SET_328_BBB324_conf1.geo_180_300_300 geometry
 ---------------------------------------------
 Charge =  1 Multiplicity = 1

 SCF Done:  E(RB3LYP) =  -1692.62654763     A.U. after   18 cycles
 Normal termination of Gaussian 16 at Sun Jul 18 22:17:31 2021.
 Gaussian 16:  ES64L-G16RevA.03 25-Dec-2016

 --------------------------------------------------------
 #p mp2/aug-cc-pVDZ scf=tight maxdisk=180GB geom=allcheck
 --------------------------------------------------------

 Structure from the checkpoint file:  "SET_328_BBB324_conf1.geo_180_300_300.chk"
 ---------------------------------------------
 SET_328_BBB324_conf1.geo_180_300_300 geometry
 ---------------------------------------------
 Charge =  1 Multiplicity = 1

                         Standard orientation:
 ---------------------------------------------------------------------
 Center     Atomic      Atomic             Coordinates (Angstroms)
 Number     Number       Type             X           Y           Z
 ---------------------------------------------------------------------
      1          6           0        0.230557   -2.368565   -0.863372
      2          1           0       -0.262353   -2.992401   -0.114594
      3          1           0        0.814866   -2.990458   -1.537464
      4          1           0       -0.531625   -1.830214   -1.436603
      5          7           0        1.144754   -1.439706   -0.202222
      6          6           0        0.579180   -0.494818    0.759440
      7          1           0        1.222623   -0.417790    1.640121
      8          1           0       -0.397732   -0.855049    1.078175
      9          6           0        0.425071    0.844154    0.116697
     10          6           0       -0.648645    1.586317   -0.306531
     11          6           0       -2.068512    1.322351   -0.162728
     12          7           0       -2.987651    2.182765   -0.531229
     13          8           0       -4.175079    1.516470   -0.220691
     14          6           0       -3.838046    0.327810    0.302308
     15          7           0       -2.547021    0.150260    0.366851
     16          6           0       -4.943377   -0.624344    0.731767
     17          6           0       -4.824567   -0.909761    2.229792
     18          1           0       -5.603943   -1.617829    2.518588
     19          1           0       -4.965330    0.011728    2.798376
     20          1           0       -3.846602   -1.328860    2.474270
     21          8           0       -6.199066   -0.030384    0.488041
     22          1           0       -6.373089   -0.172575   -0.462622
     23          6           0       -4.826744   -1.911120   -0.104167
     24          8           0       -5.130766   -1.519522   -1.437091
     25          1           0       -5.374209   -2.305176   -1.950926
     26          1           0       -5.556372   -2.630467    0.282686
     27          1           0       -3.820757   -2.338181   -0.022636
     28          7           0       -0.132329    2.710222   -0.932014
     29          6           0        1.194887    2.664678   -0.907341
     30          1           0        1.857548    3.394958   -1.339848
     31          7           0        1.565642    1.541106   -0.272669
     32          6           0        2.904897    1.145666    0.059700
     33          6           0        3.781260    2.130022    0.512094
     34          1           0        3.445842    3.155230    0.609190
     35          6           0        5.073933    1.770211    0.873462
     36          1           0        5.765338    2.524894    1.227941
     37          6           0        5.469552    0.437589    0.814816
     38          1           0        6.462212    0.138473    1.124375
     39          6           0        4.577851   -0.532357    0.361162
     40         17           0        5.130026   -2.189254    0.357127
     41          6           0        3.272211   -0.208500   -0.045031
     42          6           0        2.401912   -1.260275   -0.709782
     43          8           0        2.849082   -1.905194   -1.649604
     44          1           0       -0.672496    3.453220   -1.380173
 ---------------------------------------------------------------------

 SCF Done:  E(RHF) =  -1684.76620261     A.U. after   19 cycles
 E2 =    -0.4115725442D+01 EUMP2 =    -0.16888819280480D+04

 The electronic state is 1-A.
 Alpha  occ. eigenvalues -- -104.94228 -20.79061 -20.68844 -20.66951 -20.64955
 Alpha  occ. eigenvalues --  -15.84146 -15.83879 -15.76708 -15.72455 -15.70684
 Alpha  occ. eigenvalues --  -11.54006 -11.48954 -11.48799 -11.47050 -11.46909
 Alpha  occ. eigenvalues --  -11.46862 -11.45786 -11.44387 -11.43047 -11.42741
 Alpha  occ. eigenvalues --  -11.41018 -11.40150 -11.39632 -11.38963 -11.38243
 Alpha  occ. eigenvalues --  -11.37299 -11.33319 -10.66791  -8.13574  -8.13217
 Alpha  occ. eigenvalues --   -8.13204  -1.64814  -1.58371  -1.50655  -1.49850
 Alpha  occ. eigenvalues --   -1.46247  -1.44052  -1.38995  -1.37966  -1.32249
 Alpha  occ. eigenvalues --   -1.30398  -1.25466  -1.23585  -1.19192  -1.16559
 Alpha  occ. eigenvalues --   -1.14221  -1.13211  -1.08041  -1.06930  -1.05211
 Alpha  occ. eigenvalues --   -1.04349  -1.00536  -0.98867  -0.96514  -0.95064
 Alpha  occ. eigenvalues --   -0.93120  -0.90396  -0.88915  -0.85511  -0.85085
 Alpha  occ. eigenvalues --   -0.84534  -0.83684  -0.82820  -0.82274  -0.80180
 Alpha  occ. eigenvalues --   -0.79194  -0.78580  -0.78007  -0.77789  -0.77222
 Alpha  occ. eigenvalues --   -0.76659  -0.74230  -0.72849  -0.71872  -0.71151
 Alpha  occ. eigenvalues --   -0.70591  -0.69543  -0.68734  -0.67685  -0.67361
 Alpha  occ. eigenvalues --   -0.65628  -0.65515  -0.65364  -0.65236  -0.64491
 Alpha  occ. eigenvalues --   -0.64258  -0.63427  -0.63387  -0.61207  -0.60426
 Alpha  occ. eigenvalues --   -0.59789  -0.58218  -0.57210  -0.56316  -0.55705
 Alpha  occ. eigenvalues --   -0.54427  -0.53677  -0.50460  -0.49100  -0.47942
 Alpha  occ. eigenvalues --   -0.46365
 Alpha virt. eigenvalues --   -0.07420  -0.07245  -0.05471  -0.04869  -0.04728
 Alpha virt. eigenvalues --   -0.04165  -0.03985  -0.03516  -0.03076  -0.02789
 Alpha virt. eigenvalues --   -0.02289  -0.02073  -0.01593  -0.01232  -0.00695

 Mulliken charges:
               1
     1  C    0.790758
     2  H   -0.109186
     3  H   -0.222681
     4  H   -0.044077
     5  N   -0.601318
     6  C    1.142006
     7  H   -0.016247
     8  H   -0.225409
     9  C   -0.022728
    10  C    0.783587
    11  C    0.414818
    12  N   -0.280902
    13  O   -0.917397
    14  C    0.738148
    15  N   -0.499416
    16  C   -1.042257
    17  C    1.116831
    18  H   -0.015457
    19  H    0.031312
    20  H    0.062953
    21  O   -0.872435
    22  H    0.183033
    23  C    1.729706
    24  O   -0.827025
    25  H    0.197762
    26  H   -0.109134
    27  H   -0.093302
    28  N   -0.559039
    29  C    0.657563
    30  H   -0.324240
    31  N   -0.887887
    32  C   -0.281130
    33  C    0.983909
    34  H   -0.704594
    35  C    0.480507
    36  H   -0.448644
    37  C    0.775532
    38  H   -0.435703
    39  C   -0.781460
    40  Cl  -0.310593
    41  C    1.654186
    42  C    0.766149
    43  O   -0.844948
    44  H   -0.031552
 Sum of Mulliken charges =   1.00000

 Dipole moment (field-independent basis, Debye):
    X=              1.7446    Y=              5.7042    Z=              0.8261  Tot=              6.0220
 Quadrupole moment (field-independent basis, Debye-Ang):
   XX=           -113.0360   YY=           -122.0145   ZZ=           -156.7407
   XY=             47.5002   XZ=             13.9683   YZ=             -9.2838

 Normal termination of Gaussian 16 at Mon Jul 19 01:58:58 2021.
