 Gaussian 16, Revision A.03,

 ---------------------------------------------------------------
 #p b3lyp/6-31G(d) opt freq scrf=(iefpcm,read,solvent=n-octanol)
 ---------------------------------------------------------------

 ---------------------------------------------
 SET_328_BBB324_conf1.geo_180_105_180 geometry
 ---------------------------------------------
 Symbolic Z-matrix:
 Charge =  1 Multiplicity = 1

 SCF Done:  E(RB3LYP) =  -1692.61652449     A.U. after   14 cycles
 SCF Done:  E(RB3LYP) =  -1692.67139091     A.U. after   12 cycles
 SCF Done:  E(RB3LYP) =  -1692.71248729     A.U. after   12 cycles
 SCF Done:  E(RB3LYP) =  -1692.71884539     A.U. after   12 cycles
 SCF Done:  E(RB3LYP) =  -1692.72054890     A.U. after   11 cycles
 SCF Done:  E(RB3LYP) =  -1692.72067103     A.U. after   11 cycles
 SCF Done:  E(RB3LYP) =  -1692.72096900     A.U. after   11 cycles
 SCF Done:  E(RB3LYP) =  -1692.72112081     A.U. after   10 cycles
 SCF Done:  E(RB3LYP) =  -1692.72120392     A.U. after   11 cycles
 SCF Done:  E(RB3LYP) =  -1692.72135910     A.U. after   10 cycles
 SCF Done:  E(RB3LYP) =  -1692.72210924     A.U. after    8 cycles
 SCF Done:  E(RB3LYP) =  -1692.72211683     A.U. after    9 cycles
 SCF Done:  E(RB3LYP) =  -1692.72211548     A.U. after    9 cycles
 SCF Done:  E(RB3LYP) =  -1692.72211623     A.U. after    7 cycles
 SCF Done:  E(RB3LYP) =  -1692.72211833     A.U. after    8 cycles
 SCF Done:  E(RB3LYP) =  -1692.72211675     A.U. after    8 cycles
 Optimization completed.
    -- Stationary point found.
 Normal termination of Gaussian 16 at Sun Jul 18 20:25:22 2021.

 --------------------------------------------------------------------
 #P Geom=AllCheck Guess=TCheck SCRF=Check GenChk RB3LYP/6-31G(d) Freq
 --------------------------------------------------------------------

 Structure from the checkpoint file:  "SET_328_BBB324_conf1.geo_180_105_180.chk"
 ---------------------------------------------
 SET_328_BBB324_conf1.geo_180_105_180 geometry
 ---------------------------------------------
 Charge =  1 Multiplicity = 1

 SCF Done:  E(RB3LYP) =  -1692.72211675     A.U. after    1 cycles

  Exact polarizability: 382.511  -5.265 288.930  32.897   4.643 172.787
 Approx polarizability: 432.242 -23.057 382.964  35.935   2.692 231.780

                      1                      2                      3
                      A                      A                      A
 Frequencies --     30.2666                35.8236                44.1260
 Red. masses --      5.6388                 6.2135                 5.4079
 Frc consts  --      0.0030                 0.0047                 0.0062
 IR Inten    --      1.3579                 2.1768                 0.6463

                      4                      5                      6
                      A                      A                      A
 Frequencies --     48.7170                72.6947                89.5196
 Red. masses --      8.3158                 7.2795                 4.4940
 Frc consts  --      0.0116                 0.0227                 0.0212
 IR Inten    --      1.0762                 2.1473                 9.7536

                      7                      8                      9
                      A                      A                      A
 Frequencies --     95.4880               101.2064               115.0750
 Red. masses --      3.7151                 5.0771                 1.9781
 Frc consts  --      0.0200                 0.0306                 0.0154
 IR Inten    --      0.0781                 4.5554                 9.3272

                     10                     11                     12
                      A                      A                      A
 Frequencies --    117.9604               140.2869               162.7932
 Red. masses --      1.7724                 4.4922                 5.1868
 Frc consts  --      0.0145                 0.0521                 0.0810
 IR Inten    --      5.3275                 4.1867                 5.5652

                     13                     14                     15
                      A                      A                      A
 Frequencies --    184.0098               196.3666               200.0678
 Red. masses --      3.7016                 5.5090                 5.1269
 Frc consts  --      0.0738                 0.1252                 0.1209
 IR Inten    --      2.2515                12.6928                 2.2503

                     16                     17                     18
                      A                      A                      A
 Frequencies --    213.1078               228.9309               247.5811
 Red. masses --      3.3995                 1.4498                 5.5325
 Frc consts  --      0.0910                 0.0448                 0.1998
 IR Inten    --      2.5662                 2.5787                 2.6342

                     19                     20                     21
                      A                      A                      A
 Frequencies --    262.9803               284.9959               299.6575
 Red. masses --      3.6043                 4.6398                 2.4127
 Frc consts  --      0.1469                 0.2220                 0.1276
 IR Inten    --      6.5180                 2.3508                42.8259

                     22                     23                     24
                      A                      A                      A
 Frequencies --    318.0370               328.3368               335.8724
 Red. masses --      3.4150                 3.2942                 3.8026
 Frc consts  --      0.2035                 0.2092                 0.2527
 IR Inten    --      1.1013                12.5437                30.4077

                     25                     26                     27
                      A                      A                      A
 Frequencies --    353.2947               371.0542               373.5829
 Red. masses --      2.0160                 3.1142                 3.3109
 Frc consts  --      0.1483                 0.2526                 0.2722
 IR Inten    --    122.5300                48.6793                 5.7492

                     28                     29                     30
                      A                      A                      A
 Frequencies --    404.2815               409.0701               434.2063
 Red. masses --      5.6386                 5.4406                 4.0330
 Frc consts  --      0.5430                 0.5364                 0.4480
 IR Inten    --      5.9144                13.7623                 5.8560

                     31                     32                     33
                      A                      A                      A
 Frequencies --    447.3983               457.4774               469.1540
 Red. masses --      5.8361                 2.9462                 3.7594
 Frc consts  --      0.6883                 0.3633                 0.4875
 IR Inten    --      2.9542                91.4199                 5.6878

                     34                     35                     36
                      A                      A                      A
 Frequencies --    484.9199               496.2969               522.4758
 Red. masses --      4.6854                 1.9663                 5.1510
 Frc consts  --      0.6491                 0.2854                 0.8285
 IR Inten    --     22.6269               131.9149                14.7621

                     37                     38                     39
                      A                      A                      A
 Frequencies --    546.9637               569.3888               610.4956
 Red. masses --      4.9259                 4.6151                 4.9253
 Frc consts  --      0.8683                 0.8815                 1.0816
 IR Inten    --      1.5613                 6.1245                 1.7791

                     40                     41                     42
                      A                      A                      A
 Frequencies --    643.3617               669.9618               683.3494
 Red. masses --      2.8718                 4.6992                 4.7799
 Frc consts  --      0.7004                 1.2427                 1.3151
 IR Inten    --     69.2732                19.1919                 8.4694

                     43                     44                     45
                      A                      A                      A
 Frequencies --    698.3030               711.2406               721.0419
 Red. masses --      1.6856                 3.6903                 4.4777
 Frc consts  --      0.4843                 1.0999                 1.3716
 IR Inten    --     90.4969                 7.0603                32.1501

                     46                     47                     48
                      A                      A                      A
 Frequencies --    735.5623               750.0113               778.6032
 Red. masses --      5.6683                 6.4675                 4.7040
 Frc consts  --      1.8069                 2.1435                 1.6802
 IR Inten    --      8.1350                14.4545                33.8446

                     49                     50                     51
                      A                      A                      A
 Frequencies --    779.2523               799.1519               810.7019
 Red. masses --      3.8590                 8.6308                 4.8192
 Frc consts  --      1.3806                 3.2476                 1.8662
 IR Inten    --      2.4432                10.6551                52.0901

                     52                     53                     54
                      A                      A                      A
 Frequencies --    812.3862               842.6164               862.1141
 Red. masses --      2.1650                 1.5812                 2.6383
 Frc consts  --      0.8419                 0.6615                 1.1553
 IR Inten    --     40.7600                 2.8324                 5.6700

                     55                     56                     57
                      A                      A                      A
 Frequencies --    922.7037               925.3700               943.1812
 Red. masses --      1.6699                 2.4857                 1.7151
 Frc consts  --      0.8376                 1.2541                 0.8989
 IR Inten    --      0.8838                 0.7189                 6.0656

                     58                     59                     60
                      A                      A                      A
 Frequencies --    949.8794               959.0199               984.7903
 Red. masses --      5.5803                 4.8613                 3.9407
 Frc consts  --      2.9665                 2.6342                 2.2517
 IR Inten    --     78.3049                23.1932                15.6451

                     61                     62                     63
                      A                      A                      A
 Frequencies --    990.4803              1000.0550              1029.6445
 Red. masses --      2.4373                 1.3112                 4.7428
 Frc consts  --      1.4088                 0.7726                 2.9625
 IR Inten    --     65.1949                 0.5494                19.8639

                     64                     65                     66
                      A                      A                      A
 Frequencies --   1037.8835              1076.8383              1090.6208
 Red. masses --      4.2980                 3.0490                 3.1747
 Frc consts  --      2.7278                 2.0831                 2.2248
 IR Inten    --     54.5747                33.7854               155.6306

                     67                     68                     69
                      A                      A                      A
 Frequencies --   1100.0298              1116.8256              1123.3645
 Red. masses --      3.0318                 1.7806                 2.6043
 Frc consts  --      2.1616                 1.3085                 1.9364
 IR Inten    --     32.3855                38.0156                54.8945

                     70                     71                     72
                      A                      A                      A
 Frequencies --   1149.4934              1159.8035              1166.9631
 Red. masses --      2.4213                 1.3724                 2.4043
 Frc consts  --      1.8850                 1.0877                 1.9291
 IR Inten    --     25.1629                14.5231                 1.2585

                     73                     74                     75
                      A                      A                      A
 Frequencies --   1186.4126              1188.0296              1202.8991
 Red. masses --      1.6472                 1.8070                 2.2797
 Frc consts  --      1.3661                 1.5027                 1.9435
 IR Inten    --      0.7914                34.3587                57.8204

                     76                     77                     78
                      A                      A                      A
 Frequencies --   1217.6564              1237.7969              1244.8510
 Red. masses --      1.5714                 1.6602                 2.5499
 Frc consts  --      1.3728                 1.4987                 2.3281
 IR Inten    --     36.8249               154.8654                45.4724

                     79                     80                     81
                      A                      A                      A
 Frequencies --   1256.7963              1267.1331              1307.2506
 Red. masses --      2.6355                 2.8260                 2.6250
 Frc consts  --      2.4527                 2.6734                 2.6430
 IR Inten    --     32.0298                68.5702                 7.8040

                     82                     83                     84
                      A                      A                      A
 Frequencies --   1309.1234              1335.5477              1356.6405
 Red. masses --      3.3964                 8.6869                 1.4864
 Frc consts  --      3.4295                 9.1293                 1.6118
 IR Inten    --     27.1379                18.3693                56.0671

                     85                     86                     87
                      A                      A                      A
 Frequencies --   1365.9911              1374.4116              1380.6676
 Red. masses --      3.6068                 2.8484                 1.6657
 Frc consts  --      3.9652                 3.1702                 1.8708
 IR Inten    --     50.4162                 2.7921                85.2435

                     88                     89                     90
                      A                      A                      A
 Frequencies --   1401.9786              1426.9249              1435.6457
 Red. masses --      1.3018                 1.3424                 1.3174
 Frc consts  --      1.5076                 1.6104                 1.5998
 IR Inten    --     29.3949               138.6412                75.4187

                     91                     92                     93
                      A                      A                      A
 Frequencies --   1438.0863              1460.0344              1463.4999
 Red. masses --      1.8841                 2.1174                 1.9249
 Frc consts  --      2.2958                 2.6594                 2.4291
 IR Inten    --    144.2359                95.7078                18.5694

                     94                     95                     96
                      A                      A                      A
 Frequencies --   1487.2046              1493.0623              1500.1157
 Red. masses --      2.5603                 3.0450                 1.1583
 Frc consts  --      3.3365                 3.9994                 1.5358
 IR Inten    --     84.2527                28.2538                30.9637

                     97                     98                     99
                      A                      A                      A
 Frequencies --   1508.6006              1515.9244              1519.7859
 Red. masses --      1.1041                 1.0527                 1.0920
 Frc consts  --      1.4805                 1.4253                 1.4861
 IR Inten    --      8.2095                 9.9302                14.1295

                    100                    101                    102
                      A                      A                      A
 Frequencies --   1532.8508              1535.8054              1543.0311
 Red. masses --      1.0909                 1.2691                 2.3903
 Frc consts  --      1.5101                 1.7637                 3.3531
 IR Inten    --      0.4260                50.7112                19.2565

                    103                    104                    105
                      A                      A                      A
 Frequencies --   1553.1772              1582.0001              1612.4489
 Red. masses --      4.4513                 5.4484                 9.8127
 Frc consts  --      6.3267                 8.0340                15.0317
 IR Inten    --     74.2848               156.8694                99.3315

                    106                    107                    108
                      A                      A                      A
 Frequencies --   1624.5205              1645.0071              1706.4168
 Red. masses --      6.3401                 6.8307                 6.8315
 Frc consts  --      9.8582                10.8906                11.7203
 IR Inten    --     14.3481                59.1676                37.2582

                    109                    110                    111
                      A                      A                      A
 Frequencies --   1753.0872              3019.5960              3073.0114
 Red. masses --     11.2486                 1.0700                 1.0418
 Frc consts  --     20.3683                 5.7482                 5.7964
 IR Inten    --    487.1666                68.2160                43.4883

                    112                    113                    114
                      A                      A                      A
 Frequencies --   3092.2016              3094.2957              3137.1245
 Red. masses --      1.0697                 1.0343                 1.0942
 Frc consts  --      6.0263                 5.8346                 6.3447
 IR Inten    --      7.3805                10.3393                25.7852

                    115                    116                    117
                      A                      A                      A
 Frequencies --   3145.2201              3173.0230              3185.6795
 Red. masses --      1.0991                 1.1047                 1.1035
 Frc consts  --      6.4060                 6.5528                 6.5982
 IR Inten    --     22.8433                14.6654                 6.8558

                    118                    119                    120
                      A                      A                      A
 Frequencies --   3195.3018              3214.2121              3235.0216
 Red. masses --      1.0968                 1.1007                 1.0886
 Frc consts  --      6.5980                 6.7002                 6.7120
 IR Inten    --      8.0897                 0.5574                 2.7367

                    121                    122                    123
                      A                      A                      A
 Frequencies --   3247.6225              3258.6723              3347.5598
 Red. masses --      1.0937                 1.0957                 1.1021
 Frc consts  --      6.7964                 6.8553                 7.2763
 IR Inten    --      1.7754                 1.2558                44.6644

                    124                    125                    126
                      A                      A                      A
 Frequencies --   3528.9295              3700.6611              3722.0270
 Red. masses --      1.0852                 1.0651                 1.0658
 Frc consts  --      7.9626                 8.5939                 8.6990
 IR Inten    --    546.4452                63.5698                47.9637

 - Thermochemistry -
 -------------------
 Temperature   298.150 Kelvin.  Pressure   1.00000 Atm.
 Atom     1 has atomic number  6 and mass  12.00000

 Molecular mass:   390.09691 amu.
 Principal axes and moments of inertia in atomic units:
                           1         2         3
     Eigenvalues --  4640.53514********************
           X            0.99989   0.01467   0.00189
           Y           -0.01469   0.99981   0.01261
           Z           -0.00170  -0.01263   0.99992
 This molecule is an asymmetric top.
 Rotational symmetry number  1.
 Warning -- assumption of classical behavior for rotation
           may cause significant error
 Rotational temperatures (Kelvin)      0.01866     0.00404     0.00362
 Rotational constants (GHZ):           0.38891     0.08418     0.07540
 Zero-point vibrational energy     894024.0 (Joules/Mol)
                                  213.67687 (Kcal/Mol)
 Warning -- explicit consideration of  39 degrees of freedom as
           vibrations may cause significant error
 Vibrational temperatures:     43.55    51.54    63.49    70.09   104.59
          (Kelvin)            128.80   137.39   145.61   165.57   169.72
                              201.84   234.22   264.75   282.53   287.85
                              306.61   329.38   356.21   378.37   410.05
                              431.14   457.58   472.40   483.25   508.31
                              533.86   537.50   581.67   588.56   624.73
                              643.71   658.21   675.01   697.69   714.06
                              751.73   786.96   819.22   878.37   925.65
                              963.93   983.19  1004.70  1023.32  1037.42
                             1058.31  1079.10  1120.24  1121.17  1149.80
                             1166.42  1168.84  1212.34  1240.39  1327.56
                             1331.40  1357.03  1366.66  1379.82  1416.89
                             1425.08  1438.86  1481.43  1493.28  1549.33
                             1569.16  1582.70  1606.86  1616.27  1653.86
                             1668.70  1679.00  1706.98  1709.31  1730.70
                             1751.94  1780.91  1791.06  1808.25  1823.12
                             1880.84  1883.54  1921.56  1951.90  1965.36
                             1977.47  1986.47  2017.13  2053.03  2065.57
                             2069.09  2100.66  2105.65  2139.76  2148.18
                             2158.33  2170.54  2181.08  2186.63  2205.43
                             2209.68  2220.08  2234.68  2276.15  2319.95
                             2337.32  2366.80  2455.15  2522.30  4344.53
                             4421.38  4448.99  4452.00  4513.62  4525.27
                             4565.27  4583.48  4597.33  4624.53  4654.47
                             4672.60  4688.50  4816.39  5077.34  5324.43
                             5355.17

 Zero-point correction=                           0.340516 (Hartree/Particle)
 Thermal correction to Energy=                    0.364424
 Thermal correction to Enthalpy=                  0.365368
 Thermal correction to Gibbs Free Energy=         0.286527
 Sum of electronic and zero-point Energies=          -1692.381601
 Sum of electronic and thermal Energies=             -1692.357693
 Sum of electronic and thermal Enthalpies=           -1692.356749
 Sum of electronic and thermal Free Energies=        -1692.435589

                     E (Thermal)             CV                S
                      KCal/Mol        Cal/Mol-Kelvin    Cal/Mol-Kelvin
 Total                  228.680             91.407            165.934
 Electronic               0.000              0.000              0.000
 Translational            0.889              2.981             43.776
 Rotational               0.889              2.981             36.119
 Vibrational            226.902             85.446             86.040
 Vibration     1          0.594              1.984              5.812
 Vibration     2          0.594              1.982              5.478
 Vibration     3          0.595              1.980              5.065
 Vibration     4          0.595              1.978              4.869
 Vibration     5          0.599              1.967              4.079
 Vibration     6          0.602              1.957              3.671
 Vibration     7          0.603              1.952              3.544
 Vibration     8          0.604              1.948              3.431
 Vibration     9          0.608              1.937              3.181
 Vibration    10          0.608              1.934              3.134
 Vibration    11          0.615              1.913              2.800
 Vibration    12          0.623              1.888              2.517
 Vibration    13          0.631              1.862              2.287
 Vibration    14          0.636              1.845              2.167
 Vibration    15          0.638              1.840              2.132
 Vibration    16          0.644              1.821              2.017
 Vibration    17          0.652              1.797              1.887
 Vibration    18          0.661              1.767              1.748
 Vibration    19          0.670              1.741              1.642
 Vibration    20          0.683              1.702              1.503
 Vibration    21          0.692              1.674              1.419
 Vibration    22          0.704              1.639              1.320
 Vibration    23          0.712              1.619              1.268
 Vibration    24          0.717              1.604              1.232
 Vibration    25          0.729              1.568              1.151
 Vibration    26          0.743              1.532              1.075
 Vibration    27          0.745              1.526              1.065
 Vibration    28          0.769              1.461              0.947
 Vibration    29          0.773              1.451              0.930
 Vibration    30          0.795              1.396              0.845
 Vibration    31          0.807              1.367              0.804
 Vibration    32          0.816              1.344              0.773
 Vibration    33          0.826              1.318              0.740
 Vibration    34          0.841              1.283              0.697
 Vibration    35          0.852              1.258              0.667
 Vibration    36          0.877              1.200              0.604
 Vibration    37          0.902              1.146              0.550
 Vibration    38          0.925              1.097              0.505
 Vibration    39          0.970              1.010              0.432

 Optimization completed.
    -- Stationary point found.
 Normal termination of Gaussian 16 at Sun Jul 18 21:47:57 2021.

 ----------------------------------------------------------------------
 #p b3lyp/6-31G(d) scrf=(iefpcm,read,solvent=n-octanol) geom=allcheck g
 uess=read
 ----------------------------------------------------------------------

 Structure from the checkpoint file:  "SET_328_BBB324_conf1.geo_180_105_180.chk"
 ---------------------------------------------
 SET_328_BBB324_conf1.geo_180_105_180 geometry
 ---------------------------------------------
 Charge =  1 Multiplicity = 1

 SCF Done:  E(RB3LYP) =  -1692.72211675     A.U. after    2 cycles
 Normal termination of Gaussian 16 at Sun Jul 18 21:49:52 2021.

 -----------------------------
 #p B3LYP/6-31G* geom=allcheck
 -----------------------------

 Structure from the checkpoint file:  "SET_328_BBB324_conf1.geo_180_105_180.chk"
 ---------------------------------------------
 SET_328_BBB324_conf1.geo_180_105_180 geometry
 ---------------------------------------------
 Charge =  1 Multiplicity = 1

 SCF Done:  E(RB3LYP) =  -1692.62191079     A.U. after   17 cycles

 The electronic state is 1-A.
 Alpha  occ. eigenvalues -- -101.65422 -19.38913 -19.27003 -19.23830 -19.23570
 Alpha  occ. eigenvalues --  -14.60521 -14.60271 -14.53652 -14.49846 -14.48716
 Alpha  occ. eigenvalues --  -10.46744 -10.42978 -10.42573 -10.41886 -10.41816
 Alpha  occ. eigenvalues --  -10.41705 -10.40059 -10.38643 -10.38338 -10.37702
 Alpha  occ. eigenvalues --  -10.35783 -10.34597 -10.33722 -10.33674 -10.33270
 Alpha  occ. eigenvalues --  -10.32590 -10.27713  -9.57031  -7.33481  -7.32453
 Alpha  occ. eigenvalues --   -7.32370  -1.30909  -1.25099  -1.15987  -1.15426
 Alpha  occ. eigenvalues --   -1.13168  -1.11058  -1.08696  -1.06905  -1.02447
 Alpha  occ. eigenvalues --   -1.02177  -0.97986  -0.96246  -0.92105  -0.89476
 Alpha  occ. eigenvalues --   -0.88307  -0.88210  -0.84629  -0.83250  -0.82546
 Alpha  occ. eigenvalues --   -0.79481  -0.78188  -0.77347  -0.75312  -0.74395
 Alpha  occ. eigenvalues --   -0.73984  -0.70350  -0.69440  -0.67509  -0.67162
 Alpha  occ. eigenvalues --   -0.66416  -0.66030  -0.64725  -0.63778  -0.62298
 Alpha  occ. eigenvalues --   -0.61694  -0.61474  -0.60342  -0.60148  -0.59414
 Alpha  occ. eigenvalues --   -0.57693  -0.57270  -0.56717  -0.55218  -0.54549
 Alpha  occ. eigenvalues --   -0.54221  -0.54004  -0.53439  -0.51910  -0.51178
 Alpha  occ. eigenvalues --   -0.50781  -0.50475  -0.49951  -0.49343  -0.49052
 Alpha  occ. eigenvalues --   -0.48722  -0.48438  -0.47454  -0.46262  -0.45257
 Alpha  occ. eigenvalues --   -0.44610  -0.44523  -0.42864  -0.41813  -0.41340
 Alpha  occ. eigenvalues --   -0.40218  -0.39813  -0.37699  -0.36952  -0.36553
 Alpha  occ. eigenvalues --   -0.36178
 Alpha virt. eigenvalues --   -0.20513  -0.19051  -0.16306  -0.14198  -0.13895
 Alpha virt. eigenvalues --   -0.09656  -0.09155  -0.07791  -0.05499  -0.05306
 Alpha virt. eigenvalues --   -0.04270  -0.03629  -0.01454  -0.01151  -0.00637

 Mulliken charges:
               1
     1  C   -0.333704
     2  H    0.231927
     3  H    0.169981
     4  H    0.182562
     5  N   -0.406854
     6  C   -0.248101
     7  H    0.214044
     8  H    0.233852
     9  C    0.299741
    10  C    0.264194
    11  C    0.459968
    12  N   -0.215565
    13  O   -0.344532
    14  C    0.611138
    15  N   -0.565019
    16  C    0.159322
    17  C   -0.454761
    18  H    0.174991
    19  H    0.204457
    20  H    0.176069
    21  O   -0.623414
    22  H    0.405156
    23  C   -0.021586
    24  O   -0.588988
    25  H    0.407732
    26  H    0.174297
    27  H    0.124465
    28  N   -0.652231
    29  C    0.320775
    30  H    0.266908
    31  N   -0.548713
    32  C    0.253660
    33  C   -0.154692
    34  H    0.166445
    35  C   -0.128546
    36  H    0.189481
    37  C   -0.108515
    38  H    0.201585
    39  C   -0.131470
    40  Cl   0.085800
    41  C    0.065684
    42  C    0.531039
    43  O   -0.458967
    44  H    0.410387
 Sum of Mulliken charges =   1.00000

 Dipole moment (field-independent basis, Debye):
    X=              3.0432    Y=              8.3959    Z=              1.8051  Tot=              9.1110
 Quadrupole moment (field-independent basis, Debye-Ang):
   XX=           -122.2072   YY=           -124.7894   ZZ=           -154.3152
   XY=             21.8514   XZ=             16.1367   YZ=             -7.7831

 Normal termination of Gaussian 16 at Sun Jul 18 21:54:34 2021.
 Gaussian 16:  ES64L-G16RevA.03 25-Dec-2016

 --------------------------------------------------------
 #p mp2/aug-cc-pVDZ scf=tight maxdisk=180GB geom=allcheck
 --------------------------------------------------------

 Structure from the checkpoint file:  "SET_328_BBB324_conf1.geo_180_105_180.chk"
 ---------------------------------------------
 SET_328_BBB324_conf1.geo_180_105_180 geometry
 ---------------------------------------------
 Charge =  1 Multiplicity = 1

                         Standard orientation:
 ---------------------------------------------------------------------
 Center     Atomic      Atomic             Coordinates (Angstroms)
 Number     Number       Type             X           Y           Z
 ---------------------------------------------------------------------
      1          6           0        0.432360   -2.296273   -1.316063
      2          1           0        1.096353   -2.884016   -1.945352
      3          1           0       -0.242165   -1.714167   -1.952608
      4          1           0       -0.159957   -2.956005   -0.679443
      5          7           0        1.256623   -1.426484   -0.478552
      6          6           0        0.578704   -0.613834    0.532939
      7          1           0        1.114522   -0.656193    1.486410
      8          1           0       -0.423960   -1.009225    0.680819
      9          6           0        0.473704    0.799055    0.055178
     10          6           0       -0.571188    1.584832   -0.361030
     11          6           0       -1.994014    1.298979   -0.370395
     12          7           0       -2.885894    2.169608   -0.778108
     13          8           0       -4.089428    1.475294   -0.623895
     14          6           0       -3.784495    0.258177   -0.141483
     15          7           0       -2.505927    0.089551    0.041920
     16          6           0       -4.897444   -0.706755    0.172768
     17          6           0       -5.818810   -0.905565   -1.032326
     18          1           0       -6.202536    0.051512   -1.391069
     19          1           0       -6.657208   -1.525494   -0.713797
     20          1           0       -5.282211   -1.404810   -1.841144
     21          8           0       -4.347123   -1.979271    0.483826
     22          1           0       -3.623988   -1.863046    1.125066
     23          6           0       -5.698621   -0.203079    1.406920
     24          8           0       -6.674766   -1.153961    1.759025
     25          1           0       -6.206283   -2.004841    1.830034
     26          1           0       -6.215187    0.731254    1.177635
     27          1           0       -4.996171   -0.014165    2.232675
     28          7           0       -0.023157    2.780117   -0.796174
     29          6           0        1.297523    2.737953   -0.663731
     30          1           0        1.983126    3.519687   -0.943633
     31          7           0        1.631368    1.545081   -0.144605
     32          6           0        2.945974    1.120730    0.247493
     33          6           0        3.763355    2.048423    0.890060
     34          1           0        3.402500    3.050962    1.083870
     35          6           0        5.027850    1.656782    1.312625
     36          1           0        5.673065    2.366879    1.815327
     37          6           0        5.451796    0.345161    1.123063
     38          1           0        6.420785    0.017563    1.475922
     39          6           0        4.619028   -0.568329    0.479605
     40         17           0        5.201638   -2.206513    0.318868
     41          6           0        3.345320   -0.206949    0.007715
     42          6           0        2.549978   -1.177478   -0.848196
     43          8           0        3.085588   -1.705190   -1.814462
     44          1           0       -0.539917    3.573751   -1.179622
 ---------------------------------------------------------------------

 SCF Done:  E(RHF) =  -1684.76023462     A.U. after   19 cycles
