 Gaussian 16, Revision A.03,

 ---------------------------------------------------------------
 #p b3lyp/6-31G(d) opt freq scrf=(iefpcm,read,solvent=n-octanol)
 ---------------------------------------------------------------

 ---------------------------------------------
 SET_328_BBB321_conf1.geo_030_015_045 geometry
 ---------------------------------------------
 Symbolic Z-matrix:
 Charge =  1 Multiplicity = 1

 SCF Done:  E(RB3LYP) =  -1212.48322918     A.U. after   18 cycles
 SCF Done:  E(RB3LYP) =  -1212.60134335     A.U. after   14 cycles
 SCF Done:  E(RB3LYP) =  -1212.66459017     A.U. after   15 cycles
 SCF Done:  E(RB3LYP) =  -1212.71430777     A.U. after   12 cycles
 SCF Done:  E(RB3LYP) =  -1212.75808705     A.U. after   14 cycles
 SCF Done:  E(RB3LYP) =  -1212.77707273     A.U. after   12 cycles
 SCF Done:  E(RB3LYP) =  -1212.78789480     A.U. after   12 cycles
 SCF Done:  E(RB3LYP) =  -1212.79062750     A.U. after   12 cycles
 SCF Done:  E(RB3LYP) =  -1212.79278086     A.U. after   11 cycles
 SCF Done:  E(RB3LYP) =  -1212.79635713     A.U. after   11 cycles
 SCF Done:  E(RB3LYP) =  -1212.81442886     A.U. after    9 cycles
 SCF Done:  E(RB3LYP) =  -1212.81445641     A.U. after    9 cycles
 SCF Done:  E(RB3LYP) =  -1212.81442488     A.U. after   10 cycles
 SCF Done:  E(RB3LYP) =  -1212.81442944     A.U. after    8 cycles
 SCF Done:  E(RB3LYP) =  -1212.81445409     A.U. after    9 cycles
 SCF Done:  E(RB3LYP) =  -1212.81445628     A.U. after    8 cycles
 Optimization completed.
    -- Stationary point found.
 Normal termination of Gaussian 16 at Sun Jul 18 17:43:28 2021.

 --------------------------------------------------------------------
 #P Geom=AllCheck Guess=TCheck SCRF=Check GenChk RB3LYP/6-31G(d) Freq
 --------------------------------------------------------------------

 Structure from the checkpoint file:  "SET_328_BBB321_conf1.geo_030_015_045.chk"
 ---------------------------------------------
 SET_328_BBB321_conf1.geo_030_015_045 geometry
 ---------------------------------------------
 Charge =  1 Multiplicity = 1

 SCF Done:  E(RB3LYP) =  -1212.81445628     A.U. after    1 cycles

  Exact polarizability: 335.960 -11.801 270.638   5.578   9.919  95.000
 Approx polarizability: 387.099  -4.045 347.707   7.506  11.980 124.257

                      1                      2                      3
                      A                      A                      A
 Frequencies --     36.7725                48.7603                54.7826
 Red. masses --      6.2343                 5.0472                 5.6332
 Frc consts  --      0.0050                 0.0071                 0.0100
 IR Inten    --     14.9902                20.2541                15.2923

                      4                      5                      6
                      A                      A                      A
 Frequencies --     63.7913                82.6551                99.0620
 Red. masses --      5.1812                 2.3614                 3.7769
 Frc consts  --      0.0124                 0.0095                 0.0218
 IR Inten    --      2.6110                 2.0184                 2.0020

                      7                      8                      9
                      A                      A                      A
 Frequencies --    103.7815               113.7809               145.5485
 Red. masses --      3.3423                 1.6234                 5.6143
 Frc consts  --      0.0212                 0.0124                 0.0701
 IR Inten    --      0.9431                 0.9443                 1.4214

                     10                     11                     12
                      A                      A                      A
 Frequencies --    189.0290               243.0171               254.5773
 Red. masses --      5.5734                 3.4073                 1.5418
 Frc consts  --      0.1173                 0.1186                 0.0589
 IR Inten    --      4.7642                59.1176               230.6880

                     13                     14                     15
                      A                      A                      A
 Frequencies --    261.9642               276.1059               280.1834
 Red. masses --      3.8062                 6.0540                 5.0630
 Frc consts  --      0.1539                 0.2719                 0.2342
 IR Inten    --     33.3647                 1.7326                25.9986

                     16                     17                     18
                      A                      A                      A
 Frequencies --    292.5205               346.5477               370.4063
 Red. masses --      5.1783                 4.9218                 5.1172
 Frc consts  --      0.2611                 0.3483                 0.4137
 IR Inten    --      1.4052                 4.4067                 0.0987

                     19                     20                     21
                      A                      A                      A
 Frequencies --    398.9019               434.5759               457.0836
 Red. masses --      5.3821                 1.2341                 3.0705
 Frc consts  --      0.5046                 0.1373                 0.3780
 IR Inten    --      0.2529                72.3916                 7.5172

                     22                     23                     24
                      A                      A                      A
 Frequencies --    482.2379               535.7236               539.1970
 Red. masses --      3.6916                 1.8038                 3.2158
 Frc consts  --      0.5058                 0.3050                 0.5509
 IR Inten    --      2.4470                81.3399                45.6723

                     25                     26                     27
                      A                      A                      A
 Frequencies --    551.8234               559.2865               566.7852
 Red. masses --      1.6174                 2.3481                 1.8158
 Frc consts  --      0.2902                 0.4328                 0.3437
 IR Inten    --     54.7104               117.6255                81.4242

                     28                     29                     30
                      A                      A                      A
 Frequencies --    575.7794               599.7271               609.3446
 Red. masses --      2.2077                 3.1427                 1.1424
 Frc consts  --      0.4312                 0.6660                 0.2499
 IR Inten    --    159.3017                 4.9375                82.9339

                     31                     32                     33
                      A                      A                      A
 Frequencies --    644.1964               650.6565               667.4976
 Red. masses --      1.5475                 6.1185                 4.9924
 Frc consts  --      0.3784                 1.5262                 1.3106
 IR Inten    --     34.6236                10.7398                40.1184

                     34                     35                     36
                      A                      A                      A
 Frequencies --    678.6326               699.7375               701.3160
 Red. masses --      5.4084                 3.2944                 3.9158
 Frc consts  --      1.4675                 0.9504                 1.1348
 IR Inten    --      8.7274                17.9013                44.2054

                     37                     38                     39
                      A                      A                      A
 Frequencies --    713.5535               751.0133               761.6662
 Red. masses --      2.0655                 5.2712                 1.7669
 Frc consts  --      0.6196                 1.7517                 0.6040
 IR Inten    --      1.4080                11.7346                71.4591

                     40                     41                     42
                      A                      A                      A
 Frequencies --    804.8182               833.2406               891.6554
 Red. masses --      1.9001                 6.8106                 2.6743
 Frc consts  --      0.7252                 2.7860                 1.2527
 IR Inten    --     26.9966                34.9966                 2.6143

                     43                     44                     45
                      A                      A                      A
 Frequencies --    895.4353               964.2925               968.0847
 Red. masses --      1.8531                 4.1234                 1.3677
 Frc consts  --      0.8754                 2.2590                 0.7552
 IR Inten    --      1.8722                 2.0525                17.7907

                     46                     47                     48
                      A                      A                      A
 Frequencies --    971.8041               975.3717              1014.7372
 Red. masses --      1.2753                 4.7365                 6.0495
 Frc consts  --      0.7096                 2.6549                 3.6701
 IR Inten    --      1.9926                 6.2745                 1.3274

                     49                     50                     51
                      A                      A                      A
 Frequencies --   1030.1231              1047.9971              1066.7356
 Red. masses --      1.8750                 3.0203                 1.6849
 Frc consts  --      1.1723                 1.9545                 1.1296
 IR Inten    --     29.3837                 0.6763                15.7619

                     52                     53                     54
                      A                      A                      A
 Frequencies --   1069.9113              1103.0775              1127.7255
 Red. masses --      1.4035                 1.8564                 1.5437
 Frc consts  --      0.9466                 1.3308                 1.1567
 IR Inten    --      4.3494                32.4131                13.7089

                     55                     56                     57
                      A                      A                      A
 Frequencies --   1135.0914              1205.5992              1209.6212
 Red. masses --      1.7283                 1.2386                 1.5132
 Frc consts  --      1.3120                 1.0607                 1.3045
 IR Inten    --      6.0567                 2.9291                24.6397

                     58                     59                     60
                      A                      A                      A
 Frequencies --   1271.8640              1298.4379              1300.4228
 Red. masses --      2.4650                 2.1539                 4.9676
 Frc consts  --      2.3494                 2.1395                 4.9496
 IR Inten    --     60.9354               204.6175               249.8292

                     61                     62                     63
                      A                      A                      A
 Frequencies --   1314.1365              1366.0671              1378.1889
 Red. masses --      2.1803                 2.7517                 5.7242
 Frc consts  --      2.2184                 3.0255                 6.4059
 IR Inten    --      9.5580                16.4865                77.7264

                     64                     65                     66
                      A                      A                      A
 Frequencies --   1424.6822              1439.1397              1460.5057
 Red. masses --      1.2736                 1.5961                 3.2992
 Frc consts  --      1.5231                 1.9477                 4.1464
 IR Inten    --     34.2874               122.0341               244.5535

                     67                     68                     69
                      A                      A                      A
 Frequencies --   1497.3488              1512.1573              1531.8149
 Red. masses --      1.0717                 1.0782                 2.4376
 Frc consts  --      1.4157                 1.4527                 3.3700
 IR Inten    --      9.9550                19.3632                52.3328

                     70                     71                     72
                      A                      A                      A
 Frequencies --   1555.2259              1570.5452              1583.8183
 Red. masses --      3.9260                 2.2223                 2.5068
 Frc consts  --      5.5949                 3.2297                 3.7049
 IR Inten    --    162.4632               185.1633                69.1371

                     73                     74                     75
                      A                      A                      A
 Frequencies --   1599.9053              1613.2068              1647.9030
 Red. masses --      2.1560                 2.1266                 1.7403
 Frc consts  --      3.2516                 3.2607                 2.7844
 IR Inten    --    268.0660               416.6686               661.4139

                     76                     77                     78
                      A                      A                      A
 Frequencies --   1649.5664              1666.9463              1704.6027
 Red. masses --      4.2636                 4.4746                 3.1503
 Frc consts  --      6.8355                 7.3257                 5.3932
 IR Inten    --    348.6916                22.9395               947.4537

                     79                     80                     81
                      A                      A                      A
 Frequencies --   1772.4376              3075.9034              3144.2760
 Red. masses --      7.4047                 1.0402                 1.0983
 Frc consts  --     13.7057                 5.7983                 6.3974
 IR Inten    --    275.0650                 6.6327                15.1291

                     82                     83                     84
                      A                      A                      A
 Frequencies --   3182.1597              3202.8990              3215.2401
 Red. masses --      1.1027                 1.0873                 1.0898
 Frc consts  --      6.5788                 6.5720                 6.6380
 IR Inten    --     12.8090                 8.9569                26.3412

                     85                     86                     87
                      A                      A                      A
 Frequencies --   3229.8626              3293.1888              3294.5302
 Red. masses --      1.0960                 1.0900                 1.0942
 Frc consts  --      6.7365                 6.9650                 6.9974
 IR Inten    --     28.9223                13.3399                 4.2832

                     88                     89                     90
                      A                      A                      A
 Frequencies --   3538.6484              3550.2161              3562.8053
 Red. masses --      1.0763                 1.0464                 1.0514
 Frc consts  --      7.9408                 7.7707                 7.8634
 IR Inten    --    217.4663               314.3355               300.9816

                     91                     92                     93
                      A                      A                      A
 Frequencies --   3588.2414              3654.8345              3668.5421
 Red. masses --      1.0776                 1.1034                 1.1086
 Frc consts  --      8.1746                 8.6839                 8.7904
 IR Inten    --     62.7413               196.5970               227.8289

 - Thermochemistry -
 -------------------
 Temperature   298.150 Kelvin.  Pressure   1.00000 Atm.
 Atom     1 has atomic number  6 and mass  12.00000

 Molecular mass:   276.09191 amu.
 Principal axes and moments of inertia in atomic units:
                           1         2         3
     Eigenvalues --  3255.74169********************
           X            0.99999  -0.00313   0.00108
           Y            0.00313   0.99999   0.00357
           Z           -0.00109  -0.00357   0.99999
 This molecule is an asymmetric top.
 Rotational symmetry number  1.
 Warning -- assumption of classical behavior for rotation
           may cause significant error
 Rotational temperatures (Kelvin)      0.02660     0.00798     0.00622
 Rotational constants (GHZ):           0.55433     0.16630     0.12951
 Zero-point vibrational energy     684967.4 (Joules/Mol)
                                  163.71115 (Kcal/Mol)
 Warning -- explicit consideration of  30 degrees of freedom as
           vibrations may cause significant error
 Vibrational temperatures:     52.91    70.16    78.82    91.78   118.92
          (Kelvin)            142.53   149.32   163.71   209.41   271.97
                              349.65   366.28   376.91   397.25   403.12
                              420.87   498.60   532.93   573.93   625.26
                              657.64   693.83   770.79   775.78   793.95
                              804.69   815.48   828.42   862.87   876.71
                              926.86   936.15   960.38   976.40  1006.77
                             1009.04  1026.64  1080.54  1095.87  1157.95
                             1198.85  1282.89  1288.33  1387.40  1392.86
                             1398.21  1403.34  1459.98  1482.12  1507.83
                             1534.79  1539.36  1587.08  1622.55  1633.14
                             1734.59  1740.38  1829.93  1868.16  1871.02
                             1890.75  1965.47  1982.91  2049.80  2070.60
                             2101.34  2154.35  2175.66  2203.94  2237.62
                             2259.66  2278.76  2301.91  2321.04  2370.96
                             2373.36  2398.36  2452.54  2550.14  4425.54
                             4523.91  4578.42  4608.26  4626.01  4647.05
                             4738.16  4740.09  5091.33  5107.97  5126.08
                             5162.68  5258.49  5278.21

 Zero-point correction=                           0.260890 (Hartree/Particle)
 Thermal correction to Energy=                    0.279058
 Thermal correction to Enthalpy=                  0.280002
 Thermal correction to Gibbs Free Energy=         0.213676
 Sum of electronic and zero-point Energies=          -1212.553566
 Sum of electronic and thermal Energies=             -1212.535399
 Sum of electronic and thermal Enthalpies=           -1212.534454
 Sum of electronic and thermal Free Energies=        -1212.600780

                     E (Thermal)             CV                S
                      KCal/Mol        Cal/Mol-Kelvin    Cal/Mol-Kelvin
 Total                  175.111             69.328            139.594
 Electronic               0.000              0.000              0.000
 Translational            0.889              2.981             42.745
 Rotational               0.889              2.981             34.553
 Vibrational            173.334             63.367             62.296
 Vibration     1          0.594              1.982              5.426
 Vibration     2          0.595              1.978              4.867
 Vibration     3          0.596              1.976              4.637
 Vibration     4          0.597              1.972              4.336
 Vibration     5          0.600              1.961              3.827
 Vibration     6          0.604              1.950              3.473
 Vibration     7          0.605              1.946              3.382
 Vibration     8          0.607              1.938              3.203
 Vibration     9          0.617              1.907              2.730
 Vibration    10          0.633              1.855              2.237
 Vibration    11          0.659              1.774              1.781
 Vibration    12          0.665              1.755              1.699
 Vibration    13          0.669              1.742              1.649
 Vibration    14          0.678              1.718              1.558
 Vibration    15          0.680              1.710              1.533
 Vibration    16          0.688              1.688              1.459
 Vibration    17          0.725              1.582              1.182
 Vibration    18          0.742              1.533              1.078
 Vibration    19          0.765              1.472              0.967
 Vibration    20          0.795              1.395              0.844
 Vibration    21          0.815              1.345              0.775
 Vibration    22          0.838              1.289              0.704
 Vibration    23          0.891              1.171              0.575
 Vibration    24          0.894              1.163              0.567
 Vibration    25          0.907              1.136              0.540
 Vibration    26          0.915              1.119              0.525
 Vibration    27          0.923              1.103              0.510
 Vibration    28          0.932              1.084              0.493
 Vibration    29          0.958              1.032              0.450
 Vibration    30          0.968              1.012              0.434

                           ! Non-Optimized Parameters !
 Normal termination of Gaussian 16 at Sun Jul 18 18:14:10 2021.

 ----------------------------------------------------------------------
 #p b3lyp/6-31G(d) scrf=(iefpcm,read,solvent=n-octanol) geom=allcheck g
 uess=read
 ----------------------------------------------------------------------

 Structure from the checkpoint file:  "SET_328_BBB321_conf1.geo_030_015_045.chk"
 ---------------------------------------------
 SET_328_BBB321_conf1.geo_030_015_045 geometry
 ---------------------------------------------
 Charge =  1 Multiplicity = 1

 SCF Done:  E(RB3LYP) =  -1212.81445628     A.U. after    2 cycles
 Normal termination of Gaussian 16 at Sun Jul 18 18:15:13 2021.

 -----------------------------
 #p B3LYP/6-31G* geom=allcheck
 -----------------------------

 Structure from the checkpoint file:  "SET_328_BBB321_conf1.geo_030_015_045.chk"
 ---------------------------------------------
 SET_328_BBB321_conf1.geo_030_015_045 geometry
 ---------------------------------------------
 Charge =  1 Multiplicity = 1

 SCF Done:  E(RB3LYP) =  -1212.68570938     A.U. after   17 cycles
 Normal termination of Gaussian 16 at Sun Jul 18 18:17:37 2021.
 Gaussian 16:  ES64L-G16RevA.03 25-Dec-2016

 --------------------------------------------------------
 #p mp2/aug-cc-pVDZ scf=tight maxdisk=180GB geom=allcheck
 --------------------------------------------------------

 Structure from the checkpoint file:  "SET_328_BBB321_conf1.geo_030_015_045.chk"
 ---------------------------------------------
 SET_328_BBB321_conf1.geo_030_015_045 geometry
 ---------------------------------------------
 Charge =  1 Multiplicity = 1

                         Standard orientation:
 ---------------------------------------------------------------------
 Center     Atomic      Atomic             Coordinates (Angstroms)
 Number     Number       Type             X           Y           Z
 ---------------------------------------------------------------------
      1          6           0       -5.027792   -2.954110    0.109304
      2          1           0       -5.922938   -2.468299    0.503756
      3          1           0       -4.807938   -3.842544    0.701634
      4          1           0       -5.236252   -3.276327   -0.917054
      5          6           0       -3.806064   -2.053517    0.114497
      6          8           0       -2.666836   -2.507279    0.138453
      7          7           0       -4.096526   -0.711496    0.058121
      8          1           0       -5.081037   -0.469337    0.045072
      9          6           0       -3.216440    0.386410    0.002333
     10          6           0       -3.788791    1.666333   -0.047644
     11          6           0       -2.973270    2.792816   -0.104178
     12          6           0       -1.587194    2.664655   -0.109824
     13          1           0       -0.963638    3.549802   -0.164344
     14          1           0       -3.425665    3.777512   -0.147338
     15          1           0       -4.868674    1.776416   -0.044343
     16          6           0       -1.822968    0.250805   -0.002835
     17          1           0       -1.380443   -0.732563    0.035609
     18          6           0       -1.006609    1.388647   -0.055917
     19          6           0        0.458227    1.222271   -0.054446
     20          7           0        0.996656   -0.052923   -0.117625
     21          6           0        1.387343    2.225686    0.021406
     22          1           0        1.231403    3.288947    0.125697
     23         16           0        2.999435    1.587433   -0.006883
     24          6           0        2.292393   -0.022416   -0.095659
     25          7           0        3.028098   -1.194116   -0.276011
     26          6           0        4.329967   -1.427077    0.023940
     27          7           0        4.932648   -2.458301   -0.549067
     28          1           0        5.862368   -2.735613   -0.254414
     29          1           0        4.496411   -2.960077   -1.315058
     30          7           0        4.996606   -0.607832    0.844655
     31          1           0        4.510516   -0.158344    1.613478
     32          1           0        5.980289   -0.804278    1.007603
     33          1           0        2.514141   -1.956330   -0.714167
 ---------------------------------------------------------------------

 SCF Done:  E(RHF) =  -1207.14803564     A.U. after   18 cycles
 E2 =    -0.2816631558D+01 EUMP2 =    -0.12099646671980D+04

 The electronic state is 1-A.
 Alpha  occ. eigenvalues --  -92.12807 -20.60757 -15.80757 -15.80647 -15.79861
 Alpha  occ. eigenvalues --  -15.70660 -15.68656 -11.61194 -11.49734 -11.44122
 Alpha  occ. eigenvalues --  -11.40084 -11.38229 -11.37473 -11.34307 -11.32684
 Alpha  occ. eigenvalues --  -11.32391 -11.32285 -11.31555 -11.31388  -9.12965
 Alpha  occ. eigenvalues --   -6.81125  -6.81024  -6.80832  -1.55197  -1.46062
 Alpha  occ. eigenvalues --   -1.44940  -1.39908  -1.38130  -1.33476  -1.23687
 Alpha  occ. eigenvalues --   -1.19405  -1.16088  -1.11069  -1.09921  -1.06358
 Alpha  occ. eigenvalues --   -1.05163  -0.99170  -0.98047  -0.94298  -0.93761
 Alpha  occ. eigenvalues --   -0.90490  -0.88779  -0.87288  -0.85994  -0.84791
 Alpha  occ. eigenvalues --   -0.81917  -0.80220  -0.79074  -0.76013  -0.75063
 Alpha  occ. eigenvalues --   -0.72311  -0.71431  -0.69941  -0.69349  -0.68801
 Alpha  occ. eigenvalues --   -0.67455  -0.66090  -0.64124  -0.63198  -0.63080
 Alpha  occ. eigenvalues --   -0.62147  -0.61801  -0.59905  -0.58910  -0.57750
 Alpha  occ. eigenvalues --   -0.56266  -0.52723  -0.51260  -0.49627  -0.46688
 Alpha  occ. eigenvalues --   -0.40311  -0.38210
 Alpha virt. eigenvalues --   -0.09030  -0.06624  -0.05890  -0.05285  -0.03981
 Alpha virt. eigenvalues --   -0.03482  -0.02847  -0.02415  -0.01915  -0.01493
 Alpha virt. eigenvalues --   -0.00870  -0.00596  -0.00256   0.00077   0.00398

 Mulliken charges:
               1
     1  C    0.496324
     2  H   -0.099787
     3  H   -0.008621
     4  H    0.073886
     5  C    0.451388
     6  O   -0.868452
     7  N   -0.683911
     8  H   -0.048721
     9  C   -0.080481
    10  C    1.155280
    11  C   -0.002202
    12  C    0.463270
    13  H   -0.644822
    14  H   -0.497722
    15  H   -0.713011
    16  C    0.742483
    17  H   -0.756858
    18  C    2.086233
    19  C   -0.475865
    20  N   -0.643353
    21  C    0.603116
    22  H   -0.607984
    23  S    0.445586
    24  C    0.390467
    25  N   -0.669440
    26  C    1.168742
    27  N   -0.239475
    28  H    0.030207
    29  H    0.026131
    30  N   -0.145716
    31  H    0.070665
    32  H    0.037798
    33  H   -0.055154
 Sum of Mulliken charges =   1.00000

 Dipole moment (field-independent basis, Debye):
    X=             14.8586    Y=             -4.1725    Z=              0.1736  Tot=             15.4343
 Quadrupole moment (field-independent basis, Debye-Ang):
   XX=             27.5552   YY=            -87.3256   ZZ=           -116.2395
   XY=            -32.9976   XZ=              4.5962   YZ=              6.2471

 Normal termination of Gaussian 16 at Sun Jul 18 19:15:33 2021.
