 Gaussian 16, Revision A.03,

 ---------------------------------------------------------------
 #p b3lyp/6-31G(d) opt freq scrf=(iefpcm,read,solvent=n-octanol)
 ---------------------------------------------------------------

 ---------------------------------------------
 SET_328_BBB292_conf1.geo_255_060_105 geometry
 ---------------------------------------------
 Symbolic Z-matrix:
 Charge =  1 Multiplicity = 1

 SCF Done:  E(RB3LYP) =  -705.574966355     A.U. after   13 cycles
 SCF Done:  E(RB3LYP) =  -705.641954385     A.U. after   12 cycles
 SCF Done:  E(RB3LYP) =  -705.649762300     A.U. after   14 cycles
 SCF Done:  E(RB3LYP) =  -705.689330696     A.U. after   13 cycles
 SCF Done:  E(RB3LYP) =  -705.694709060     A.U. after   12 cycles
 SCF Done:  E(RB3LYP) =  -705.695761754     A.U. after   11 cycles
 SCF Done:  E(RB3LYP) =  -705.697085741     A.U. after   11 cycles
 SCF Done:  E(RB3LYP) =  -705.697814211     A.U. after   11 cycles
 SCF Done:  E(RB3LYP) =  -705.697909350     A.U. after   13 cycles
 SCF Done:  E(RB3LYP) =  -705.698409259     A.U. after   10 cycles
 SCF Done:  E(RB3LYP) =  -705.698885575     A.U. after    8 cycles
 SCF Done:  E(RB3LYP) =  -705.698896156     A.U. after    9 cycles
 SCF Done:  E(RB3LYP) =  -705.698896656     A.U. after    8 cycles
 SCF Done:  E(RB3LYP) =  -705.698896134     A.U. after    7 cycles
 SCF Done:  E(RB3LYP) =  -705.698896909     A.U. after    7 cycles
 SCF Done:  E(RB3LYP) =  -705.698896720     A.U. after    7 cycles
 Optimization completed.
    -- Stationary point found.
 Normal termination of Gaussian 16 at Sun Jul 18 14:53:57 2021.

 --------------------------------------------------------------------
 #P Geom=AllCheck Guess=TCheck SCRF=Check GenChk RB3LYP/6-31G(d) Freq
 --------------------------------------------------------------------

 Structure from the checkpoint file:  "SET_328_BBB292_conf1.geo_255_060_105.chk"
 ---------------------------------------------
 SET_328_BBB292_conf1.geo_255_060_105 geometry
 ---------------------------------------------
 Charge =  1 Multiplicity = 1

 SCF Done:  E(RB3LYP) =  -705.698896720     A.U. after    1 cycles

  Exact polarizability: 165.742  12.185 132.193  24.369 -18.911  96.528
 Approx polarizability: 194.020  18.070 177.737  33.847 -30.198 131.877

                      1                      2                      3
                      A                      A                      A
 Frequencies --     37.5717                55.5753               100.2464
 Red. masses --      6.4542                 8.7879                 7.4388
 Frc consts  --      0.0054                 0.0160                 0.0440
 IR Inten    --      2.6760                 9.8111                 8.9865

                      4                      5                      6
                      A                      A                      A
 Frequencies --    123.3123               166.3071               203.7440
 Red. masses --      6.0881                 5.4702                 5.1113
 Frc consts  --      0.0545                 0.0891                 0.1250
 IR Inten    --     14.6219                14.4606                19.6398

                      7                      8                      9
                      A                      A                      A
 Frequencies --    268.8904               288.6776               298.0833
 Red. masses --      3.1327                 1.6709                 2.1888
 Frc consts  --      0.1334                 0.0820                 0.1146
 IR Inten    --     73.4240                96.4539               137.9653

                     10                     11                     12
                      A                      A                      A
 Frequencies --    314.0277               330.2465               336.8495
 Red. masses --      4.5158                 4.0221                 2.2700
 Frc consts  --      0.2624                 0.2585                 0.1518
 IR Inten    --     12.2159                14.8503                 6.4960

                     13                     14                     15
                      A                      A                      A
 Frequencies --    380.7506               400.9598               417.1335
 Red. masses --      3.7737                 1.2691                 1.1226
 Frc consts  --      0.3223                 0.1202                 0.1151
 IR Inten    --     21.4732                 1.9276                34.4541

                     16                     17                     18
                      A                      A                      A
 Frequencies --    452.8887               464.1512               506.6450
 Red. masses --      3.2622                 3.6641                 5.3833
 Frc consts  --      0.3942                 0.4651                 0.8142
 IR Inten    --      1.9490                 7.1878                20.4883

                     19                     20                     21
                      A                      A                      A
 Frequencies --    573.1770               585.3948               597.2737
 Red. masses --      3.1308                 1.3275                 5.4799
 Frc consts  --      0.6060                 0.2680                 1.1518
 IR Inten    --     51.4830               127.3846                 2.5097

                     22                     23                     24
                      A                      A                      A
 Frequencies --    626.3739               636.0932               705.3940
 Red. masses --      3.2853                 4.2363                 5.1931
 Frc consts  --      0.7594                 1.0099                 1.5224
 IR Inten    --      5.2041                13.4770                 1.1784

                     25                     26                     27
                      A                      A                      A
 Frequencies --    756.0959               772.7866               802.8676
 Red. masses --      4.7663                 4.4896                 2.2409
 Frc consts  --      1.6054                 1.5797                 0.8511
 IR Inten    --      1.2885                 6.7655                22.1534

                     28                     29                     30
                      A                      A                      A
 Frequencies --    804.5159               819.4483               875.7477
 Red. masses --      4.2426                 2.3682                 1.4080
 Frc consts  --      1.6179                 0.9369                 0.6362
 IR Inten    --     14.0894                29.6241                28.1934

                     31                     32                     33
                      A                      A                      A
 Frequencies --    916.9736               939.4040               972.2500
 Red. masses --      1.2878                 1.8813                 2.8093
 Frc consts  --      0.6380                 0.9782                 1.5646
 IR Inten    --      0.2344                10.0728                21.7620

                     34                     35                     36
                      A                      A                      A
 Frequencies --    979.9733              1030.6792              1112.6546
 Red. masses --      2.3504                 2.9376                 1.5544
 Frc consts  --      1.3299                 1.8386                 1.1338
 IR Inten    --     15.3462                54.2949                50.5307

                     37                     38                     39
                      A                      A                      A
 Frequencies --   1138.4663              1173.2269              1179.7700
 Red. masses --      1.8948                 1.5787                 1.3926
 Frc consts  --      1.4469                 1.2803                 1.1420
 IR Inten    --    172.6011                21.0435                46.8832

                     40                     41                     42
                      A                      A                      A
 Frequencies --   1194.3260              1222.0622              1227.1965
 Red. masses --      1.5236                 1.5091                 1.5047
 Frc consts  --      1.2805                 1.3278                 1.3352
 IR Inten    --    125.0595                30.3180                77.2255

                     43                     44                     45
                      A                      A                      A
 Frequencies --   1263.0228              1305.2927              1331.3757
 Red. masses --      1.3323                 2.2244                 4.3118
 Frc consts  --      1.2522                 2.2330                 4.5031
 IR Inten    --     75.0077                32.1365               291.9473

                     46                     47                     48
                      A                      A                      A
 Frequencies --   1333.1546              1364.7598              1383.7848
 Red. masses --      2.5538                 1.5251                 1.5402
 Frc consts  --      2.6742                 1.6737                 1.7377
 IR Inten    --    447.8254               158.5713                70.8563

                     49                     50                     51
                      A                      A                      A
 Frequencies --   1398.4118              1423.8113              1435.8980
 Red. masses --      1.4529                 1.6522                 1.6143
 Frc consts  --      1.6740                 1.9734                 1.9610
 IR Inten    --      8.3978                16.4293                13.7026

                     52                     53                     54
                      A                      A                      A
 Frequencies --   1521.9827              1523.5566              1567.4509
 Red. masses --      1.1183                 2.6972                 3.3976
 Frc consts  --      1.5263                 3.6888                 4.9183
 IR Inten    --      4.3933                 1.3151               256.5823

                     55                     56                     57
                      A                      A                      A
 Frequencies --   1591.8030              1660.1034              1664.4248
 Red. masses --      1.1421                 3.4932                 1.2000
 Frc consts  --      1.7051                 5.6721                 1.9587
 IR Inten    --    217.3137                38.5945               100.6312

                     58                     59                     60
                      A                      A                      A
 Frequencies --   1680.3795              1700.0311              1867.3061
 Red. masses --      6.2520                 1.0523                 9.7539
 Frc consts  --     10.4012                 1.7919                20.0382
 IR Inten    --     16.6975               126.8231               290.8253

                     61                     62                     63
                      A                      A                      A
 Frequencies --   3074.1615              3119.6313              3172.4036
 Red. masses --      1.0617                 1.1023                 1.0883
 Frc consts  --      5.9115                 6.3206                 6.4534
 IR Inten    --     36.9080                14.4750                 1.8848

                     64                     65                     66
                      A                      A                      A
 Frequencies --   3207.5904              3220.0102              3223.3313
 Red. masses --      1.0872                 1.0910                 1.0938
 Frc consts  --      6.5907                 6.6647                 6.6960
 IR Inten    --     15.0025                18.5468                 5.4472

                     67                     68                     69
                      A                      A                      A
 Frequencies --   3374.5700              3441.1975              3461.8469
 Red. masses --      1.0375                 1.0904                 1.0924
 Frc consts  --      6.9610                 7.6075                 7.7131
 IR Inten    --    166.2419               196.1128               197.4715

                     70                     71                     72
                      A                      A                      A
 Frequencies --   3697.7811              3742.6343              3744.0106
 Red. masses --      1.0653                 1.0662                 1.0665
 Frc consts  --      8.5823                 8.7989                 8.8081
 IR Inten    --    168.6676               184.9710                82.0335

 - Thermochemistry -
 -------------------
 Temperature   298.150 Kelvin.  Pressure   1.00000 Atm.
 Atom     1 has atomic number  7 and mass  14.00307

 Molecular mass:   198.07663 amu.
 Principal axes and moments of inertia in atomic units:
                           1         2         3
     Eigenvalues --  1394.160434791.679215316.32673
           X            0.99982   0.01135   0.01500
           Y           -0.01087   0.99942  -0.03214
           Z           -0.01536   0.03197   0.99937
 This molecule is an asymmetric top.
 Rotational symmetry number  1.
 Warning -- assumption of classical behavior for rotation
           may cause significant error
 Rotational temperatures (Kelvin)      0.06213     0.01808     0.01629
 Rotational constants (GHZ):           1.29450     0.37664     0.33947
 Zero-point vibrational energy     563943.1 (Joules/Mol)
                                  134.78565 (Kcal/Mol)
 Warning -- explicit consideration of  21 degrees of freedom as
           vibrations may cause significant error
 Vibrational temperatures:     54.06    79.96   144.23   177.42   239.28
          (Kelvin)            293.14   386.87   415.34   428.88   451.82
                              475.15   484.65   547.82   576.89   600.16
                              651.61   667.81   728.95   824.67   842.25
                              859.34   901.21   915.20  1014.90  1087.85
                             1111.87  1155.15  1157.52  1179.00  1260.01
                             1319.32  1351.59  1398.85  1409.96  1482.92
                             1600.86  1638.00  1688.01  1697.43  1718.37
                             1758.27  1765.66  1817.21  1878.03  1915.55
                             1918.11  1963.58  1990.96  2012.00  2048.55
                             2065.94  2189.79  2192.06  2255.21  2290.25
                             2388.52  2394.74  2417.69  2445.97  2686.64
                             4423.03  4488.45  4564.38  4615.01  4632.88
                             4637.65  4855.25  4951.12  4980.83  5320.28
                             5384.82  5386.80

 Zero-point correction=                           0.214795 (Hartree/Particle)
 Thermal correction to Energy=                    0.227865
 Thermal correction to Enthalpy=                  0.228810
 Thermal correction to Gibbs Free Energy=         0.175093
 Sum of electronic and zero-point Energies=           -705.484102
 Sum of electronic and thermal Energies=              -705.471031
 Sum of electronic and thermal Enthalpies=            -705.470087
 Sum of electronic and thermal Free Energies=         -705.523803

                     E (Thermal)             CV                S
                      KCal/Mol        Cal/Mol-Kelvin    Cal/Mol-Kelvin
 Total                  142.988             50.785            113.055
 Electronic               0.000              0.000              0.000
 Translational            0.889              2.981             41.755
 Rotational               0.889              2.981             31.941
 Vibrational            141.210             44.823             39.359
 Vibration     1          0.594              1.982              5.383
 Vibration     2          0.596              1.975              4.608
 Vibration     3          0.604              1.949              3.450
 Vibration     4          0.610              1.930              3.048
 Vibration     5          0.624              1.884              2.477
 Vibration     6          0.639              1.835              2.099
 Vibration     7          0.673              1.730              1.603
 Vibration     8          0.685              1.695              1.482
 Vibration     9          0.691              1.677              1.428
 Vibration    10          0.702              1.647              1.341
 Vibration    11          0.713              1.615              1.259
 Vibration    12          0.718              1.602              1.227
 Vibration    13          0.750              1.511              1.036
 Vibration    14          0.767              1.468              0.959
 Vibration    15          0.780              1.433              0.902
 Vibration    16          0.811              1.355              0.787
 Vibration    17          0.822              1.330              0.754
 Vibration    18          0.862              1.235              0.642
 Vibration    19          0.929              1.089              0.498
 Vibration    20          0.942              1.063              0.475
 Vibration    21          0.955              1.038              0.454

 Optimization completed.
    -- Stationary point found.
 Normal termination of Gaussian 16 at Sun Jul 18 15:10:52 2021.

 ----------------------------------------------------------------------
 #p b3lyp/6-31G(d) scrf=(iefpcm,read,solvent=n-octanol) geom=allcheck g
 uess=read
 ----------------------------------------------------------------------

 Structure from the checkpoint file:  "SET_328_BBB292_conf1.geo_255_060_105.chk"
 ---------------------------------------------
 SET_328_BBB292_conf1.geo_255_060_105 geometry
 ---------------------------------------------
 Charge =  1 Multiplicity = 1

 SCF Done:  E(RB3LYP) =  -705.701107516     A.U. after    1 cycles
 Normal termination of Gaussian 16 at Sun Jul 18 15:11:13 2021.

 -----------------------------
 #p B3LYP/6-31G* geom=allcheck
 -----------------------------

 Structure from the checkpoint file:  "SET_328_BBB292_conf1.geo_255_060_105.chk"
 ---------------------------------------------
 SET_328_BBB292_conf1.geo_255_060_105 geometry
 ---------------------------------------------
 Charge =  1 Multiplicity = 1

 SCF Done:  E(RB3LYP) =  -705.556598207     A.U. after   16 cycles

 The electronic state is 1-A.
 Alpha  occ. eigenvalues --  -19.36128 -19.29600 -19.29321 -19.27210 -14.67839
 Alpha  occ. eigenvalues --  -10.48704 -10.44790 -10.37409 -10.36002 -10.35564
 Alpha  occ. eigenvalues --  -10.32285 -10.30563 -10.30389 -10.30265  -1.26671
 Alpha  occ. eigenvalues --   -1.21725  -1.17937  -1.17927  -1.14655  -0.99273
 Alpha  occ. eigenvalues --   -0.95455  -0.88352  -0.85695  -0.82856  -0.80738
 Alpha  occ. eigenvalues --   -0.78614  -0.78482  -0.74355  -0.73089  -0.71754
 Alpha  occ. eigenvalues --   -0.67079  -0.65939  -0.64183  -0.61993  -0.59961
 Alpha  occ. eigenvalues --   -0.59258  -0.57976  -0.56940  -0.56309  -0.54296
 Alpha  occ. eigenvalues --   -0.53373  -0.53250  -0.51639  -0.49865  -0.47452
 Alpha  occ. eigenvalues --   -0.47320  -0.46740  -0.45262  -0.44051  -0.42916
 Alpha  occ. eigenvalues --   -0.35264  -0.31792
 Alpha virt. eigenvalues --   -0.19023  -0.16057  -0.12457  -0.12054  -0.10758
 Alpha virt. eigenvalues --   -0.10272  -0.08381  -0.04128  -0.03907  -0.02698
 Alpha virt. eigenvalues --   -0.01224   0.00333   0.01129   0.02150   0.03205

 Mulliken charges:
               1
     1  N   -0.733620
     2  H    0.444523
     3  H    0.435611
     4  C   -0.159288
     5  C    0.623559
     6  O   -0.523840
     7  H    0.412927
     8  O   -0.369290
     9  H    0.254619
    10  C   -0.395732
    11  H    0.165468
    12  H    0.185771
    13  C    0.174722
    14  C   -0.225606
    15  H    0.142492
    16  C    0.341814
    17  O   -0.635547
    18  H    0.443510
    19  C    0.318646
    20  O   -0.659307
    21  H    0.434202
    22  C   -0.179449
    23  H    0.155543
    24  C   -0.196159
    25  H    0.127398
    26  H    0.417031
 Sum of Mulliken charges =   1.00000

 Dipole moment (field-independent basis, Debye):
    X=            -12.0585    Y=             -6.9650    Z=             -3.1356  Tot=             14.2742
 Quadrupole moment (field-independent basis, Debye-Ang):
   XX=              4.4587   YY=            -71.3217   ZZ=            -78.2852
   XY=             11.3710   XZ=             19.4344   YZ=             -5.6403

 Normal termination of Gaussian 16 at Sun Jul 18 15:12:38 2021.
 Gaussian 16:  ES64L-G16RevA.03 25-Dec-2016

 --------------------------------------------------------
 #p mp2/aug-cc-pVDZ scf=tight maxdisk=180GB geom=allcheck
 --------------------------------------------------------

 Structure from the checkpoint file:  "SET_328_BBB292_conf1.geo_255_060_105.chk"
 ---------------------------------------------
 SET_328_BBB292_conf1.geo_255_060_105 geometry
 ---------------------------------------------
 Charge =  1 Multiplicity = 1

                         Standard orientation:
 ---------------------------------------------------------------------
 Center     Atomic      Atomic             Coordinates (Angstroms)
 Number     Number       Type             X           Y           Z
 ---------------------------------------------------------------------
      1          7           0       -3.735720   -0.930618   -0.346873
      2          1           0       -4.432043   -0.802685    0.402576
      3          1           0       -3.808948   -1.915195   -0.642629
      4          6           0       -2.330653   -0.607867    0.113696
      5          6           0       -2.274251    0.811826    0.712658
      6          8           0       -2.533995    1.854687   -0.097309
      7          1           0       -2.686162    1.605141   -1.025851
      8          8           0       -2.004608    0.990474    1.873128
      9          1           0       -2.132237   -1.277911    0.948315
     10          6           0       -1.319765   -0.859917   -1.022173
     11          1           0       -1.532940   -0.201356   -1.870780
     12          1           0       -1.470312   -1.883445   -1.378509
     13          6           0        0.115487   -0.682885   -0.574848
     14          6           0        0.796088    0.514650   -0.833330
     15          1           0        0.316879    1.330032   -1.363698
     16          6           0        2.115143    0.678843   -0.426378
     17          8           0        2.772159    1.839001   -0.692153
     18          1           0        3.674316    1.754952   -0.335326
     19          6           0        2.771512   -0.363634    0.253722
     20          8           0        4.067048   -0.088612    0.596418
     21          1           0        4.469258   -0.842660    1.059655
     22          6           0        2.101436   -1.553535    0.514217
     23          1           0        2.611309   -2.360211    1.030669
     24          6           0        0.777806   -1.711375    0.098559
     25          1           0        0.271501   -2.650405    0.294592
     26          1           0       -4.052239   -0.362969   -1.148313
 ---------------------------------------------------------------------

 SCF Done:  E(RHF) =  -701.565781077     A.U. after   17 cycles
