 Gaussian 16, Revision A.03,

 ---------------------------------------------------------------
 #p b3lyp/6-31G(d) opt freq scrf=(iefpcm,read,solvent=n-octanol)
 ---------------------------------------------------------------

 ---------------------------------------------
 SET_328_BBB292_conf1.geo_255_060_255 geometry
 ---------------------------------------------
 Symbolic Z-matrix:
 Charge =  1 Multiplicity = 1

 SCF Done:  E(RB3LYP) =  -705.670105511     A.U. after   13 cycles
 SCF Done:  E(RB3LYP) =  -705.696879166     A.U. after   11 cycles
 SCF Done:  E(RB3LYP) =  -705.667829296     A.U. after   12 cycles
 SCF Done:  E(RB3LYP) =  -705.704172200     A.U. after   11 cycles
 SCF Done:  E(RB3LYP) =  -705.706001135     A.U. after   11 cycles
 SCF Done:  E(RB3LYP) =  -705.704251141     A.U. after   14 cycles
 SCF Done:  E(RB3LYP) =  -705.707575841     A.U. after   11 cycles
 SCF Done:  E(RB3LYP) =  -705.704991146     A.U. after   14 cycles
 SCF Done:  E(RB3LYP) =  -705.708302718     A.U. after   11 cycles
 SCF Done:  E(RB3LYP) =  -705.708461510     A.U. after   11 cycles
 SCF Done:  E(RB3LYP) =  -705.708644345     A.U. after    8 cycles
 SCF Done:  E(RB3LYP) =  -705.708645035     A.U. after    8 cycles
 SCF Done:  E(RB3LYP) =  -705.708645069     A.U. after    6 cycles
 SCF Done:  E(RB3LYP) =  -705.708644805     A.U. after    8 cycles
 SCF Done:  E(RB3LYP) =  -705.708645103     A.U. after    7 cycles
 SCF Done:  E(RB3LYP) =  -705.708645109     A.U. after    6 cycles
 Optimization completed.
    -- Stationary point found.
 Normal termination of Gaussian 16 at Sun Jul 18 14:29:15 2021.

 --------------------------------------------------------------------
 #P Geom=AllCheck Guess=TCheck SCRF=Check GenChk RB3LYP/6-31G(d) Freq
 --------------------------------------------------------------------

 Structure from the checkpoint file:  "SET_328_BBB292_conf1.geo_255_060_255.chk"
 ---------------------------------------------
 SET_328_BBB292_conf1.geo_255_060_255 geometry
 ---------------------------------------------
 Charge =  1 Multiplicity = 1

 SCF Done:  E(RB3LYP) =  -705.708645109     A.U. after    1 cycles

  Exact polarizability: 166.644   9.629 135.400  26.442 -21.508  94.083
 Approx polarizability: 200.185  14.805 181.039  36.182 -35.977 122.592

                      1                      2                      3
                      A                      A                      A
 Frequencies --     37.3806                53.8528                61.1991
 Red. masses --      5.3495                 7.1034                 7.8616
 Frc consts  --      0.0044                 0.0121                 0.0173
 IR Inten    --      1.0653                 1.3940                 1.9401

                      4                      5                      6
                      A                      A                      A
 Frequencies --    109.4552               145.3793               207.2473
 Red. masses --      4.4819                 5.5782                 5.0349
 Frc consts  --      0.0316                 0.0695                 0.1274
 IR Inten    --     11.4468                 2.4750                 0.7429

                      7                      8                      9
                      A                      A                      A
 Frequencies --    223.2254               267.9009               285.6647
 Red. masses --      1.3568                 4.4891                 2.9280
 Frc consts  --      0.0398                 0.1898                 0.1408
 IR Inten    --     10.7782                17.2304                16.7291

                     10                     11                     12
                      A                      A                      A
 Frequencies --    299.1287               310.1122               315.6063
 Red. masses --      2.4525                 2.9676                 4.5727
 Frc consts  --      0.1293                 0.1682                 0.2684
 IR Inten    --      4.4550                 6.1400                20.7559

                     13                     14                     15
                      A                      A                      A
 Frequencies --    348.6090               355.0949               394.2269
 Red. masses --      1.1555                 1.1579                 3.7424
 Frc consts  --      0.0827                 0.0860                 0.3427
 IR Inten    --    140.8805               157.7322                33.7218

                     16                     17                     18
                      A                      A                      A
 Frequencies --    452.6968               467.0790               476.0446
 Red. masses --      4.3393                 3.2900                 4.1989
 Frc consts  --      0.5239                 0.4229                 0.5606
 IR Inten    --     19.0039                 0.5702                42.6752

                     19                     20                     21
                      A                      A                      A
 Frequencies --    557.9811               590.6296               606.2903
 Red. masses --      4.5334                 5.9564                 1.4100
 Frc consts  --      0.8316                 1.2242                 0.3054
 IR Inten    --     10.5819                 5.6966               116.6745

                     22                     23                     24
                      A                      A                      A
 Frequencies --    637.1000               643.1030               708.3383
 Red. masses --      2.9416                 3.8566                 5.1256
 Frc consts  --      0.7035                 0.9398                 1.5152
 IR Inten    --     28.9767                38.9643                 0.6147

                     25                     26                     27
                      A                      A                      A
 Frequencies --    758.0967               770.2488               796.1099
 Red. masses --      4.1801                 4.2542                 2.5138
 Frc consts  --      1.4154                 1.4871                 0.9387
 IR Inten    --     27.1795                11.6139                11.3508

                     28                     29                     30
                      A                      A                      A
 Frequencies --    801.6733               816.8327               863.5011
 Red. masses --      4.3353                 1.6609                 1.4221
 Frc consts  --      1.6416                 0.6529                 0.6247
 IR Inten    --     14.2491                40.2909                37.5185

                     31                     32                     33
                      A                      A                      A
 Frequencies --    917.1317               942.4133               962.1455
 Red. masses --      1.2924                 2.1271                 1.9734
 Frc consts  --      0.6405                 1.1131                 1.0763
 IR Inten    --      0.5186                27.3879                11.7845

                     34                     35                     36
                      A                      A                      A
 Frequencies --    984.0171              1038.3107              1113.6437
 Red. masses --      2.7364                 3.4213                 1.5438
 Frc consts  --      1.5611                 2.1732                 1.1280
 IR Inten    --     10.5010                27.8092                13.5048

                     37                     38                     39
                      A                      A                      A
 Frequencies --   1132.2483              1160.2926              1188.0991
 Red. masses --      1.8911                 1.4308                 1.4785
 Frc consts  --      1.4284                 1.1349                 1.2297
 IR Inten    --    172.4975                48.5448                 6.8953

                     40                     41                     42
                      A                      A                      A
 Frequencies --   1192.8228              1204.7472              1208.5217
 Red. masses --      2.2350                 1.3253                 1.5599
 Frc consts  --      1.8736                 1.1333                 1.3423
 IR Inten    --    246.8645               216.7731               265.9576

                     43                     44                     45
                      A                      A                      A
 Frequencies --   1240.5522              1310.6333              1335.7113
 Red. masses --      1.3354                 2.1717                 2.7796
 Frc consts  --      1.2108                 2.1980                 2.9218
 IR Inten    --     60.2149                58.1009               183.1104

                     46                     47                     48
                      A                      A                      A
 Frequencies --   1342.3378              1362.7612              1374.3363
 Red. masses --      1.7315                 1.3952                 1.5138
 Frc consts  --      1.8382                 1.5266                 1.6847
 IR Inten    --     13.7217                11.6624                48.7451

                     49                     50                     51
                      A                      A                      A
 Frequencies --   1393.1261              1409.7630              1467.3574
 Red. masses --      1.4717                 3.0414                 2.0830
 Frc consts  --      1.6829                 3.5614                 2.6425
 IR Inten    --     11.3314                78.8117                33.4436

                     52                     53                     54
                      A                      A                      A
 Frequencies --   1493.2098              1511.2300              1577.2087
 Red. masses --      3.3007                 1.1283                 1.2146
 Frc consts  --      4.3361                 1.5183                 1.7802
 IR Inten    --     61.3555                18.5848               400.9512

                     55                     56                     57
                      A                      A                      A
 Frequencies --   1579.6769              1640.8964              1659.0971
 Red. masses --      2.8977                 1.0389                 2.7560
 Frc consts  --      4.2603                 1.6481                 4.4696
 IR Inten    --     62.8420               104.8042                23.6721

                     58                     59                     60
                      A                      A                      A
 Frequencies --   1664.7601              1676.9936              1833.2013
 Red. masses --      1.3585                 5.4408                 9.9370
 Frc consts  --      2.2182                 9.0152                19.6754
 IR Inten    --    113.2920                21.4121               366.3126

                     61                     62                     63
                      A                      A                      A
 Frequencies --   3084.9846              3134.1064              3175.0850
 Red. masses --      1.0598                 1.1021                 1.0885
 Frc consts  --      5.9425                 6.3783                 6.4651
 IR Inten    --     28.9725                 7.2117                 4.0522

                     64                     65                     66
                      A                      A                      A
 Frequencies --   3188.3364              3200.7456              3217.3586
 Red. masses --      1.0907                 1.0875                 1.0947
 Frc consts  --      6.5323                 6.5643                 6.6764
 IR Inten    --     19.8632                18.7714                16.7951

                     67                     68                     69
                      A                      A                      A
 Frequencies --   3379.6755              3441.6265              3475.4802
 Red. masses --      1.0364                 1.0939                 1.0908
 Frc consts  --      6.9747                 7.6338                 7.7629
 IR Inten    --    138.2846               199.2035               198.8425

                     70                     71                     72
                      A                      A                      A
 Frequencies --   3654.3810              3748.6443              3761.2602
 Red. masses --      1.0644                 1.0661                 1.0663
 Frc consts  --      8.3747                 8.8269                 8.8876
 IR Inten    --    155.9695               143.4295               107.0742

 - Thermochemistry -
 -------------------
 Temperature   298.150 Kelvin.  Pressure   1.00000 Atm.
 Atom     1 has atomic number  7 and mass  14.00307

 Molecular mass:   198.07663 amu.
 Principal axes and moments of inertia in atomic units:
                           1         2         3
     Eigenvalues --  1342.704694807.534965248.90391
           X            0.99990   0.00992   0.01022
           Y           -0.00971   0.99974  -0.02083
           Z           -0.01042   0.02073   0.99973
 This molecule is an asymmetric top.
 Rotational symmetry number  1.
 Warning -- assumption of classical behavior for rotation
           may cause significant error
 Rotational temperatures (Kelvin)      0.06451     0.01802     0.01650
 Rotational constants (GHZ):           1.34411     0.37540     0.34383
 Zero-point vibrational energy     560682.2 (Joules/Mol)
                                  134.00625 (Kcal/Mol)
 Warning -- explicit consideration of  21 degrees of freedom as
           vibrations may cause significant error
 Vibrational temperatures:     53.78    77.48    88.05   157.48   209.17
          (Kelvin)            298.18   321.17   385.45   411.01   430.38
                              446.18   454.09   501.57   510.90   567.20
                              651.33   672.02   684.92   802.81   849.78
                              872.32   916.64   925.28  1019.14  1090.73
                             1108.22  1145.42  1153.43  1175.24  1242.39
                             1319.55  1355.92  1384.31  1415.78  1493.90
                             1602.28  1629.05  1669.40  1709.41  1716.21
                             1733.36  1738.79  1784.88  1885.71  1921.79
                             1931.32  1960.71  1977.36  2004.40  2028.33
                             2111.20  2148.40  2174.32  2269.25  2272.80
                             2360.88  2387.07  2395.22  2412.82  2637.57
                             4438.60  4509.28  4568.24  4587.30  4605.16
                             4629.06  4862.60  4951.73  5000.44  5257.84
                             5393.46  5411.61

 Zero-point correction=                           0.213553 (Hartree/Particle)
 Thermal correction to Energy=                    0.227063
 Thermal correction to Enthalpy=                  0.228008
 Thermal correction to Gibbs Free Energy=         0.172986
 Sum of electronic and zero-point Energies=           -705.495093
 Sum of electronic and thermal Energies=              -705.481582
 Sum of electronic and thermal Enthalpies=            -705.480638
 Sum of electronic and thermal Free Energies=         -705.535659

                     E (Thermal)             CV                S
                      KCal/Mol        Cal/Mol-Kelvin    Cal/Mol-Kelvin
 Total                  142.484             51.415            115.802
 Electronic               0.000              0.000              0.000
 Translational            0.889              2.981             41.755
 Rotational               0.889              2.981             31.894
 Vibrational            140.707             45.453             42.153
 Vibration     1          0.594              1.982              5.393
 Vibration     2          0.596              1.976              4.671
 Vibration     3          0.597              1.973              4.418
 Vibration     4          0.606              1.942              3.279
 Vibration     5          0.617              1.908              2.732
 Vibration     6          0.641              1.830              2.068
 Vibration     7          0.649              1.806              1.933
 Vibration     8          0.673              1.732              1.610
 Vibration     9          0.683              1.700              1.500
 Vibration    10          0.692              1.675              1.422
 Vibration    11          0.699              1.654              1.362
 Vibration    12          0.703              1.644              1.333
 Vibration    13          0.726              1.578              1.172
 Vibration    14          0.731              1.565              1.144
 Vibration    15          0.761              1.483              0.984
 Vibration    16          0.811              1.355              0.788
 Vibration    17          0.824              1.323              0.746
 Vibration    18          0.833              1.303              0.721
 Vibration    19          0.914              1.122              0.528
 Vibration    20          0.948              1.052              0.466
 Vibration    21          0.965              1.018              0.439

                           ! Non-Optimized Parameters !
 Normal termination of Gaussian 16 at Sun Jul 18 14:46:53 2021.

 ----------------------------------------------------------------------
 #p b3lyp/6-31G(d) scrf=(iefpcm,read,solvent=n-octanol) geom=allcheck g
 uess=read
 ----------------------------------------------------------------------

 Structure from the checkpoint file:  "SET_328_BBB292_conf1.geo_255_060_255.chk"
 ---------------------------------------------
 SET_328_BBB292_conf1.geo_255_060_255 geometry
 ---------------------------------------------
 Charge =  1 Multiplicity = 1

 SCF Done:  E(RB3LYP) =  -705.710838139     A.U. after    1 cycles
 Normal termination of Gaussian 16 at Sun Jul 18 14:47:15 2021.

 -----------------------------
 #p B3LYP/6-31G* geom=allcheck
 -----------------------------

 Structure from the checkpoint file:  "SET_328_BBB292_conf1.geo_255_060_255.chk"
 ---------------------------------------------
 SET_328_BBB292_conf1.geo_255_060_255 geometry
 ---------------------------------------------
 Charge =  1 Multiplicity = 1

 SCF Done:  E(RB3LYP) =  -705.578638575     A.U. after   15 cycles
 Normal termination of Gaussian 16 at Sun Jul 18 14:48:41 2021.
 Gaussian 16:  ES64L-G16RevA.03 25-Dec-2016

 --------------------------------------------------------
 #p mp2/aug-cc-pVDZ scf=tight maxdisk=180GB geom=allcheck
 --------------------------------------------------------

 Structure from the checkpoint file:  "SET_328_BBB292_conf1.geo_255_060_255.chk"
 ---------------------------------------------
 SET_328_BBB292_conf1.geo_255_060_255 geometry
 ---------------------------------------------
 Charge =  1 Multiplicity = 1

                         Standard orientation:
 ---------------------------------------------------------------------
 Center     Atomic      Atomic             Coordinates (Angstroms)
 Number     Number       Type             X           Y           Z
 ---------------------------------------------------------------------
      1          7           0       -3.765608   -0.797815   -0.471264
      2          1           0       -4.492320   -0.761859    0.257908
      3          1           0       -3.875597   -1.701178   -0.951220
      4          6           0       -2.381141   -0.619192    0.091684
      5          6           0       -2.301953    0.803118    0.642651
      6          8           0       -1.564168    0.855968    1.749684
      7          1           0       -1.487336    1.790815    2.030532
      8          8           0       -2.832675    1.749061    0.101481
      9          1           0       -2.261604   -1.342079    0.897813
     10          6           0       -1.334651   -0.853977   -1.024443
     11          1           0       -1.543128   -0.155606   -1.840431
     12          1           0       -1.486041   -1.866664   -1.410983
     13          6           0        0.097440   -0.687091   -0.569011
     14          6           0        0.799484    0.482398   -0.892247
     15          1           0        0.310377    1.259839   -1.472846
     16          6           0        2.121483    0.666040   -0.497286
     17          8           0        2.850214    1.778491   -0.794371
     18          1           0        2.303530    2.384800   -1.318158
     19          6           0        2.769110   -0.340872    0.246160
     20          8           0        4.062262   -0.106940    0.602658
     21          1           0        4.397203   -0.868347    1.102948
     22          6           0        2.073252   -1.505127    0.565473
     23          1           0        2.577087   -2.283948    1.127787
     24          6           0        0.748437   -1.682145    0.160680
     25          1           0        0.235544   -2.605070    0.411437
     26          1           0       -3.992279   -0.057553   -1.153523
 ---------------------------------------------------------------------

 SCF Done:  E(RHF) =  -701.589158789     A.U. after   17 cycles
 E2 =    -0.2199683587D+01 EUMP2 =    -0.70378884237586D+03

 The electronic state is 1-A.
 Alpha  occ. eigenvalues --  -20.78198 -20.73218 -20.69798 -20.69526 -15.90273
 Alpha  occ. eigenvalues --  -11.57086 -11.50077 -11.41951 -11.41708 -11.41544
 Alpha  occ. eigenvalues --  -11.37443 -11.36048 -11.35935 -11.35436  -1.63457
 Alpha  occ. eigenvalues --   -1.53691  -1.51784  -1.51018  -1.49193  -1.28332
 Alpha  occ. eigenvalues --   -1.23363  -1.14696  -1.12743  -1.07296  -0.99970
 Alpha  occ. eigenvalues --   -0.97929  -0.96904  -0.95793  -0.91591  -0.87742
 Alpha  occ. eigenvalues --   -0.86196  -0.84555  -0.83303  -0.82807  -0.80713
 Alpha  occ. eigenvalues --   -0.78913  -0.75449  -0.73556  -0.72573  -0.72218
 Alpha  occ. eigenvalues --   -0.70918  -0.70533  -0.69778  -0.65848  -0.65249
 Alpha  occ. eigenvalues --   -0.64437  -0.62795  -0.62276  -0.61906  -0.58195
 Alpha  occ. eigenvalues --   -0.44792  -0.41199
 Alpha virt. eigenvalues --   -0.10934  -0.07444  -0.07081  -0.05781  -0.04157
 Alpha virt. eigenvalues --   -0.03920  -0.03533  -0.03429  -0.02779  -0.02039
 Alpha virt. eigenvalues --   -0.01363  -0.00534  -0.00084   0.00003   0.00277

 Mulliken charges:
               1
     1  N   -0.525863
     2  H    0.185670
     3  H    0.225477
     4  C    0.810573
     5  C    1.155426
     6  O   -0.740164
     7  H    0.250575
     8  O   -0.759029
     9  H   -0.237062
    10  C    0.384258
    11  H   -0.146914
    12  H   -0.146087
    13  C    1.075445
    14  C    0.718715
    15  H   -0.810622
    16  C    0.303462
    17  O   -0.892358
    18  H    0.197514
    19  C    0.986716
    20  O   -0.913754
    21  H    0.211392
    22  C    0.474514
    23  H   -0.608068
    24  C    0.234918
    25  H   -0.702946
    26  H    0.268211
 Sum of Mulliken charges =   1.00000

 Dipole moment (field-independent basis, Debye):
    X=            -13.6957    Y=             -5.0426    Z=             -0.5561  Tot=             14.6051
 Quadrupole moment (field-independent basis, Debye-Ang):
   XX=            -23.4865   YY=            -66.5481   ZZ=            -71.1896
   XY=             10.3651   XZ=              9.3971   YZ=             -0.9270

 Normal termination of Gaussian 16 at Sun Jul 18 15:46:58 2021.
