 Gaussian 16, Revision A.03,

 ---------------------------------------------------------------
 #p b3lyp/6-31G(d) opt freq scrf=(iefpcm,read,solvent=n-octanol)
 ---------------------------------------------------------------

 ---------------------------------------------
 SET_328_BBB321_conf1.geo_165_210_060 geometry
 ---------------------------------------------
 Symbolic Z-matrix:
 Charge =  1 Multiplicity = 1

 SCF Done:  E(RB3LYP) =  -1212.44874523     A.U. after   17 cycles
 SCF Done:  E(RB3LYP) =  -1212.60310489     A.U. after   13 cycles
 SCF Done:  E(RB3LYP) =  -1212.68829374     A.U. after   13 cycles
 SCF Done:  E(RB3LYP) =  -1212.74368366     A.U. after   12 cycles
 SCF Done:  E(RB3LYP) =  -1212.78079434     A.U. after   12 cycles
 SCF Done:  E(RB3LYP) =  -1212.79897105     A.U. after   11 cycles
 SCF Done:  E(RB3LYP) =  -1212.81193565     A.U. after   14 cycles
 SCF Done:  E(RB3LYP) =  -1212.81592097     A.U. after   11 cycles
 SCF Done:  E(RB3LYP) =  -1212.81742836     A.U. after   12 cycles
 SCF Done:  E(RB3LYP) =  -1212.81929266     A.U. after   11 cycles
 SCF Done:  E(RB3LYP) =  -1212.82065914     A.U. after    8 cycles
 SCF Done:  E(RB3LYP) =  -1212.82066351     A.U. after    9 cycles
 SCF Done:  E(RB3LYP) =  -1212.82066647     A.U. after    8 cycles
 SCF Done:  E(RB3LYP) =  -1212.82067183     A.U. after    8 cycles
 SCF Done:  E(RB3LYP) =  -1212.82067282     A.U. after    7 cycles
 SCF Done:  E(RB3LYP) =  -1212.82067312     A.U. after    6 cycles
 Optimization completed.
    -- Stationary point found.
 Normal termination of Gaussian 16 at Sun Jul 18 19:34:15 2021.

 --------------------------------------------------------------------
 #P Geom=AllCheck Guess=TCheck SCRF=Check GenChk RB3LYP/6-31G(d) Freq
 --------------------------------------------------------------------

 Structure from the checkpoint file:  "SET_328_BBB321_conf1.geo_165_210_060.chk"
 ---------------------------------------------
 SET_328_BBB321_conf1.geo_165_210_060 geometry
 ---------------------------------------------
 Charge =  1 Multiplicity = 1

 SCF Done:  E(RB3LYP) =  -1212.82067312     A.U. after    1 cycles

  Exact polarizability: 340.648  -2.695 270.441   0.227   0.018  82.379
 Approx polarizability: 367.896  -8.204 372.035   0.030   0.913 110.533

                      1                      2                      3
                      A                      A                      A
 Frequencies --     24.6254                52.0547                69.3858
 Red. masses --      6.4370                 5.5055                 5.1191
 Frc consts  --      0.0023                 0.0088                 0.0145
 IR Inten    --      1.5613                19.7919                 7.4661

                      4                      5                      6
                      A                      A                      A
 Frequencies --     76.3764                80.6359                92.2198
 Red. masses --      1.8095                 2.8052                 3.6069
 Frc consts  --      0.0062                 0.0107                 0.0181
 IR Inten    --      0.8069                 4.0796                 2.9017

                      7                      8                      9
                      A                      A                      A
 Frequencies --    108.2092               121.7764               137.5242
 Red. masses --      2.2201                 5.5372                 5.6172
 Frc consts  --      0.0153                 0.0484                 0.0626
 IR Inten    --      0.6657                13.3642                11.0798

                     10                     11                     12
                      A                      A                      A
 Frequencies --    204.4393               221.8843               252.9463
 Red. masses --      1.2730                 5.4510                 3.5060
 Frc consts  --      0.0313                 0.1581                 0.1322
 IR Inten    --    266.8387                 1.4533                18.3982

                     13                     14                     15
                      A                      A                      A
 Frequencies --    264.1872               270.6317               281.8602
 Red. masses --      3.9791                 4.2581                 4.8526
 Frc consts  --      0.1636                 0.1837                 0.2271
 IR Inten    --      3.5848                 1.0235                 5.2433

                     16                     17                     18
                      A                      A                      A
 Frequencies --    333.6346               344.0722               351.8397
 Red. masses --      2.0505                 3.8790                 3.8952
 Frc consts  --      0.1345                 0.2706                 0.2841
 IR Inten    --     54.1616                21.1667                17.5573

                     19                     20                     21
                      A                      A                      A
 Frequencies --    355.4009               391.8648               408.9430
 Red. masses --      7.7155                 3.7436                 1.1331
 Frc consts  --      0.5742                 0.3387                 0.1116
 IR Inten    --      5.5456                31.9597               404.4633

                     22                     23                     24
                      A                      A                      A
 Frequencies --    455.2516               491.9854               507.0067
 Red. masses --      3.3398                 4.2283                 1.6513
 Frc consts  --      0.4078                 0.6030                 0.2501
 IR Inten    --      2.1490                 1.6869                57.4833

                     25                     26                     27
                      A                      A                      A
 Frequencies --    534.3912               542.3763               560.8023
 Red. masses --      1.8398                 2.4202                 2.5032
 Frc consts  --      0.3096                 0.4195                 0.4638
 IR Inten    --     89.6775                63.4533                 0.6091

                     28                     29                     30
                      A                      A                      A
 Frequencies --    565.2838               597.6806               622.3478
 Red. masses --      2.5210                 3.1441                 8.8029
 Frc consts  --      0.4746                 0.6617                 2.0088
 IR Inten    --      4.3442                 6.0869                 2.4915

                     31                     32                     33
                      A                      A                      A
 Frequencies --    630.3075               671.4091               673.9164
 Red. masses --      2.4380                 1.2740                 5.3203
 Frc consts  --      0.5707                 0.3384                 1.4236
 IR Inten    --      4.7803                29.0058                 3.9204

                     34                     35                     36
                      A                      A                      A
 Frequencies --    692.0093               698.2848               707.0827
 Red. masses --      6.2767                 4.1181                 2.2933
 Frc consts  --      1.7709                 1.1831                 0.6755
 IR Inten    --     17.8429                 1.1725                 1.2383

                     37                     38                     39
                      A                      A                      A
 Frequencies --    713.6803               751.3497               813.7960
 Red. masses --      2.3439                 1.6768                 1.7154
 Frc consts  --      0.7034                 0.5577                 0.6693
 IR Inten    --      0.5019                78.1799                24.2468

                     40                     41                     42
                      A                      A                      A
 Frequencies --    827.0050               867.3022               893.7230
 Red. masses --      6.6558                 6.2479                 4.5907
 Frc consts  --      2.6820                 2.7690                 2.1604
 IR Inten    --     35.1137                16.4271                13.9201

                     43                     44                     45
                      A                      A                      A
 Frequencies --    907.2235               933.2759               970.6103
 Red. masses --      1.4172                 1.4374                 5.7965
 Frc consts  --      0.6872                 0.7376                 3.2174
 IR Inten    --      2.5860                19.3409                 5.4521

                     46                     47                     48
                      A                      A                      A
 Frequencies --    980.5583               992.6106              1010.9169
 Red. masses --      1.2778                 3.1274                 4.8491
 Frc consts  --      0.7239                 1.8155                 2.9197
 IR Inten    --      1.1167                 1.4986                 7.4553

                     49                     50                     51
                      A                      A                      A
 Frequencies --   1017.3986              1039.6587              1068.5363
 Red. masses --      5.9365                 1.7907                 1.6798
 Frc consts  --      3.6205                 1.1404                 1.1300
 IR Inten    --      2.0544                54.3142                16.6514

                     52                     53                     54
                      A                      A                      A
 Frequencies --   1094.8552              1105.6386              1133.1398
 Red. masses --      1.5541                 1.6094                 1.6069
 Frc consts  --      1.0976                 1.1592                 1.2157
 IR Inten    --      9.6012                12.3645                16.9106

                     55                     56                     57
                      A                      A                      A
 Frequencies --   1160.2625              1204.1906              1216.7159
 Red. masses --      1.6322                 1.1181                 1.6827
 Frc consts  --      1.2946                 0.9553                 1.4677
 IR Inten    --      1.4228                 0.5130                15.3195

                     58                     59                     60
                      A                      A                      A
 Frequencies --   1252.8819              1266.4640              1291.7824
 Red. masses --      3.0577                 3.1367                 2.4014
 Frc consts  --      2.8279                 2.9642                 2.3610
 IR Inten    --    225.6489                76.0337               160.5656

                     61                     62                     63
                      A                      A                      A
 Frequencies --   1323.2500              1343.2431              1377.2494
 Red. masses --      1.7205                 4.2787                 3.6662
 Frc consts  --      1.7750                 4.5485                 4.0972
 IR Inten    --     32.5794                49.8633                29.8309

                     64                     65                     66
                      A                      A                      A
 Frequencies --   1428.5936              1476.4923              1498.7940
 Red. masses --      1.2522                 3.2616                 1.0943
 Frc consts  --      1.5057                 4.1893                 1.4483
 IR Inten    --     26.6523               388.0723                23.0423

                     67                     68                     69
                      A                      A                      A
 Frequencies --   1509.4283              1515.0790              1517.2307
 Red. masses --      1.7492                 1.3905                 1.7036
 Frc consts  --      2.3481                 1.8806                 2.3106
 IR Inten    --     15.5513                11.3996               126.5102

                     70                     71                     72
                      A                      A                      A
 Frequencies --   1554.2512              1562.9460              1589.9987
 Red. masses --      2.8715                 3.2681                 2.5404
 Frc consts  --      4.0870                 4.7037                 3.7840
 IR Inten    --    623.7015                52.2135               299.7289

                     73                     74                     75
                      A                      A                      A
 Frequencies --   1602.0098              1635.5180              1648.9363
 Red. masses --      2.8045                 1.3884                 4.8524
 Frc consts  --      4.2407                 2.1881                 7.7735
 IR Inten    --     53.7254               297.2490               134.7643

                     76                     77                     78
                      A                      A                      A
 Frequencies --   1664.9143              1668.2790              1727.1371
 Red. masses --      2.4488                 2.3606                 3.3348
 Frc consts  --      3.9993                 3.8708                 5.8611
 IR Inten    --    490.0759               458.5236               806.8810

                     79                     80                     81
                      A                      A                      A
 Frequencies --   1767.3741              3084.1171              3152.9984
 Red. masses --      7.7441                 1.0370                 1.1002
 Frc consts  --     14.2520                 5.8114                 6.4443
 IR Inten    --    274.7545                 6.9618                12.3071

                     82                     83                     84
                      A                      A                      A
 Frequencies --   3175.3472              3204.2439              3221.4891
 Red. masses --      1.1042                 1.0875                 1.0938
 Frc consts  --      6.5597                 6.5785                 6.6879
 IR Inten    --     14.5993                12.2272                30.5395

                     85                     86                     87
                      A                      A                      A
 Frequencies --   3270.1083              3275.3204              3303.7985
 Red. masses --      1.0894                 1.0903                 1.0944
 Frc consts  --      6.8637                 6.8911                 7.0383
 IR Inten    --      5.0334                 7.3836                 9.6796

                     88                     89                     90
                      A                      A                      A
 Frequencies --   3500.5240              3554.6901              3564.9044
 Red. masses --      1.0525                 1.0704                 1.0562
 Frc consts  --      7.5984                 7.9687                 7.9081
 IR Inten    --    441.0375               113.2848               418.6553

                     91                     92                     93
                      A                      A                      A
 Frequencies --   3643.7909              3649.2387              3673.2422
 Red. masses --      1.0775                 1.1013                 1.1090
 Frc consts  --      8.4286                 8.6407                 8.8158
 IR Inten    --     62.8319               439.1082               236.7847

 - Thermochemistry -
 -------------------
 Temperature   298.150 Kelvin.  Pressure   1.00000 Atm.
 Atom     1 has atomic number  6 and mass  12.00000

 Molecular mass:   276.09191 amu.
 Principal axes and moments of inertia in atomic units:
                           1         2         3
     Eigenvalues --  2290.56583********************
           X            0.99998   0.00610   0.00031
           Y           -0.00610   0.99998  -0.00143
           Z           -0.00032   0.00143   1.00000
 This molecule is an asymmetric top.
 Rotational symmetry number  1.
 Warning -- assumption of classical behavior for rotation
           may cause significant error
 Rotational temperatures (Kelvin)      0.03781     0.00704     0.00596
 Rotational constants (GHZ):           0.78790     0.14676     0.12417
 Zero-point vibrational energy     685416.9 (Joules/Mol)
                                  163.81858 (Kcal/Mol)
 Warning -- explicit consideration of  29 degrees of freedom as
           vibrations may cause significant error
 Vibrational temperatures:     35.43    74.90    99.83   109.89   116.02
          (Kelvin)            132.68   155.69   175.21   197.87   294.14
                              319.24   363.93   380.11   389.38   405.53
                              480.03   495.04   506.22   511.34   563.81
                              588.38   655.01   707.86   729.47   768.87
                              780.36   806.87   813.32   859.93   895.42
                              906.87   966.01   969.62   995.65  1004.68
                             1017.33  1026.83  1081.02  1170.87  1189.88
                             1247.85  1285.87  1305.29  1342.78  1396.49
                             1410.80  1428.15  1454.48  1463.81  1495.84
                             1537.39  1575.25  1590.77  1630.34  1669.36
                             1732.56  1750.58  1802.62  1822.16  1858.59
                             1903.86  1932.63  1981.55  2055.43  2124.34
                             2156.43  2171.73  2179.86  2182.96  2236.22
                             2248.73  2287.65  2304.93  2353.15  2372.45
                             2395.44  2400.28  2484.97  2542.86  4437.36
                             4536.46  4568.62  4610.19  4635.00  4704.96
                             4712.46  4753.43  5036.47  5114.41  5129.10
                             5242.60  5250.44  5284.98

 Zero-point correction=                           0.261062 (Hartree/Particle)
 Thermal correction to Energy=                    0.279368
 Thermal correction to Enthalpy=                  0.280312
 Thermal correction to Gibbs Free Energy=         0.213821
 Sum of electronic and zero-point Energies=          -1212.559612
 Sum of electronic and thermal Energies=             -1212.541305
 Sum of electronic and thermal Enthalpies=           -1212.540361
 Sum of electronic and thermal Free Energies=        -1212.606852

                     E (Thermal)             CV                S
                      KCal/Mol        Cal/Mol-Kelvin    Cal/Mol-Kelvin
 Total                  175.306             69.636            139.942
 Electronic               0.000              0.000              0.000
 Translational            0.889              2.981             42.745
 Rotational               0.889              2.981             34.370
 Vibrational            173.529             63.674             62.827
 Vibration     1          0.593              1.985              6.221
 Vibration     2          0.596              1.977              4.738
 Vibration     3          0.598              1.969              4.171
 Vibration     4          0.599              1.965              3.982
 Vibration     5          0.600              1.962              3.875
 Vibration     6          0.602              1.955              3.612
 Vibration     7          0.606              1.943              3.301
 Vibration     8          0.609              1.931              3.072
 Vibration     9          0.614              1.916              2.838
 Vibration    10          0.640              1.834              2.093
 Vibration    11          0.648              1.808              1.944
 Vibration    12          0.664              1.758              1.710
 Vibration    13          0.671              1.739              1.634
 Vibration    14          0.674              1.727              1.592
 Vibration    15          0.681              1.707              1.522
 Vibration    16          0.715              1.608              1.242
 Vibration    17          0.723              1.587              1.193
 Vibration    18          0.728              1.571              1.158
 Vibration    19          0.731              1.564              1.142
 Vibration    20          0.759              1.488              0.993
 Vibration    21          0.773              1.451              0.930
 Vibration    22          0.814              1.349              0.780
 Vibration    23          0.848              1.268              0.678
 Vibration    24          0.862              1.234              0.641
 Vibration    25          0.889              1.174              0.577
 Vibration    26          0.897              1.156              0.560
 Vibration    27          0.916              1.116              0.522
 Vibration    28          0.921              1.106              0.513
 Vibration    29          0.956              1.037              0.454

                           ! Non-Optimized Parameters !
 Normal termination of Gaussian 16 at Sun Jul 18 20:05:04 2021.

 ----------------------------------------------------------------------
 #p b3lyp/6-31G(d) scrf=(iefpcm,read,solvent=n-octanol) geom=allcheck g
 uess=read
 ----------------------------------------------------------------------

 Structure from the checkpoint file:  "SET_328_BBB321_conf1.geo_165_210_060.chk"
 ---------------------------------------------
 SET_328_BBB321_conf1.geo_165_210_060 geometry
 ---------------------------------------------
 Charge =  1 Multiplicity = 1

 SCF Done:  E(RB3LYP) =  -1212.82067312     A.U. after    1 cycles
 Normal termination of Gaussian 16 at Sun Jul 18 20:05:55 2021.

 -----------------------------
 #p B3LYP/6-31G* geom=allcheck
 -----------------------------

 Structure from the checkpoint file:  "SET_328_BBB321_conf1.geo_165_210_060.chk"
 ---------------------------------------------
 SET_328_BBB321_conf1.geo_165_210_060 geometry
 ---------------------------------------------
 Charge =  1 Multiplicity = 1

 SCF Done:  E(RB3LYP) =  -1212.69838557     A.U. after   17 cycles
 Normal termination of Gaussian 16 at Sun Jul 18 20:08:20 2021.
 Gaussian 16:  ES64L-G16RevA.03 25-Dec-2016

 --------------------------------------------------------
 #p mp2/aug-cc-pVDZ scf=tight maxdisk=180GB geom=allcheck
 --------------------------------------------------------

 Structure from the checkpoint file:  "SET_328_BBB321_conf1.geo_165_210_060.chk"
 ---------------------------------------------
 SET_328_BBB321_conf1.geo_165_210_060 geometry
 ---------------------------------------------
 Charge =  1 Multiplicity = 1

                         Standard orientation:
 ---------------------------------------------------------------------
 Center     Atomic      Atomic             Coordinates (Angstroms)
 Number     Number       Type             X           Y           Z
 ---------------------------------------------------------------------
      1          6           0       -6.339884   -0.851126    0.177212
      2          1           0       -6.698743   -1.156399   -0.810428
      3          1           0       -6.825298    0.089257    0.445787
      4          1           0       -6.633802   -1.624322    0.889187
      5          6           0       -4.824599   -0.766632    0.147988
      6          8           0       -4.121455   -1.772260    0.161205
      7          7           0       -4.329922    0.514931    0.081507
      8          1           0       -5.016580    1.255280    0.071823
      9          6           0       -2.992304    0.946302   -0.011966
     10          6           0       -2.768098    2.329751   -0.112590
     11          6           0       -1.470003    2.818689   -0.203205
     12          6           0       -0.382176    1.948029   -0.197492
     13          1           0        0.626485    2.329701   -0.277374
     14          1           0       -1.306001    3.888057   -0.280935
     15          1           0       -3.610444    3.014480   -0.117804
     16          6           0       -1.902716    0.069224   -0.000142
     17          1           0       -2.094438   -0.989389    0.095717
     18          6           0       -0.594447    0.567630   -0.098019
     19          6           0        0.551924   -0.359183   -0.101121
     20          7           0        1.841821    0.145164    0.023657
     21          6           0        0.490038   -1.720282   -0.221039
     22          1           0       -0.375800   -2.352094   -0.343756
     23         16           0        2.074663   -2.425083   -0.180532
     24          6           0        2.728176   -0.805715    0.002197
     25          7           0        4.100302   -0.620286    0.107773
     26          6           0        4.761787    0.575158    0.150402
     27          7           0        4.094809    1.717137    0.166138
     28          1           0        4.596029    2.598339    0.180233
     29          1           0        3.077268    1.699112    0.157532
     30          7           0        6.090532    0.542154    0.175798
     31          1           0        6.619943    1.405153    0.231315
     32          1           0        6.594614   -0.337481    0.149767
     33          1           0        4.694824   -1.445066    0.130346
 ---------------------------------------------------------------------

 SCF Done:  E(RHF) =  -1207.16056337     A.U. after   18 cycles
 E2 =    -0.2816240453D+01 EUMP2 =    -0.12099768038181D+04

 The electronic state is 1-A.
 Alpha  occ. eigenvalues --  -92.12896 -20.61022 -15.81172 -15.79813 -15.78385
 Alpha  occ. eigenvalues --  -15.71566 -15.69116 -11.60378 -11.50859 -11.44437
 Alpha  occ. eigenvalues --  -11.40580 -11.38488 -11.38294 -11.35211 -11.33528
 Alpha  occ. eigenvalues --  -11.33140 -11.33034 -11.32488 -11.31479  -9.13063
 Alpha  occ. eigenvalues --   -6.81226  -6.81118  -6.80926  -1.54823  -1.46320
 Alpha  occ. eigenvalues --   -1.44980  -1.39215  -1.38413  -1.33986  -1.24439
 Alpha  occ. eigenvalues --   -1.19857  -1.16658  -1.11652  -1.10651  -1.06385
 Alpha  occ. eigenvalues --   -1.05072  -0.99140  -0.98437  -0.95493  -0.93139
 Alpha  occ. eigenvalues --   -0.91332  -0.87771  -0.86249  -0.85733  -0.85135
 Alpha  occ. eigenvalues --   -0.82755  -0.81549  -0.79951  -0.76827  -0.75710
 Alpha  occ. eigenvalues --   -0.72353  -0.71826  -0.70385  -0.69897  -0.69563
 Alpha  occ. eigenvalues --   -0.67831  -0.66325  -0.63946  -0.63694  -0.63403
 Alpha  occ. eigenvalues --   -0.62269  -0.61367  -0.61138  -0.59186  -0.58151
 Alpha  occ. eigenvalues --   -0.57560  -0.53051  -0.51815  -0.49954  -0.47284
 Alpha  occ. eigenvalues --   -0.40696  -0.39036
 Alpha virt. eigenvalues --   -0.08918  -0.06889  -0.05248  -0.04360  -0.03487
 Alpha virt. eigenvalues --   -0.03323  -0.03032  -0.02686  -0.02087  -0.01513
 Alpha virt. eigenvalues --   -0.01444  -0.00381   0.00153   0.00290   0.00458

 Mulliken charges:
               1
     1  C    0.576135
     2  H    0.063972
     3  H   -0.143939
     4  H    0.017013
     5  C    0.443869
     6  O   -0.877902
     7  N   -0.625436
     8  H   -0.052440
     9  C   -0.624873
    10  C    1.154115
    11  C    0.003682
    12  C    1.040212
    13  H   -0.646501
    14  H   -0.514702
    15  H   -0.719529
    16  C    1.110972
    17  H   -0.669289
    18  C    1.644244
    19  C   -0.710739
    20  N   -0.728504
    21  C    0.504061
    22  H   -0.573799
    23  S    0.487005
    24  C    0.480151
    25  N   -0.691782
    26  C    1.324628
    27  N   -0.141692
    28  H    0.005501
    29  H    0.117645
    30  N   -0.266330
    31  H    0.027437
    32  H    0.000259
    33  H   -0.013444
 Sum of Mulliken charges =   1.00000

 Dipole moment (field-independent basis, Debye):
    X=             16.4385    Y=              4.3026    Z=              0.3218  Tot=             16.9952
 Quadrupole moment (field-independent basis, Debye-Ang):
   XX=             44.0545   YY=            -95.4941   ZZ=           -124.2845
   XY=             -1.5070   XZ=              3.6887   YZ=              1.2298

 Normal termination of Gaussian 16 at Sun Jul 18 21:12:05 2021.
