 Gaussian 16, Revision A.03,

 ---------------------------------------------------------------
 #p b3lyp/6-31G(d) opt freq scrf=(iefpcm,read,solvent=n-octanol)
 ---------------------------------------------------------------

 ---------------------------------------------
 SET_328_BBB227_conf1.geo_075_180_060 geometry
 ---------------------------------------------
 Symbolic Z-matrix:
 Charge =  1 Multiplicity = 1

 SCF Done:  E(RB3LYP) =  -1203.62576959     A.U. after   13 cycles
 SCF Done:  E(RB3LYP) =  -1203.66696350     A.U. after   11 cycles
 SCF Done:  E(RB3LYP) =  -1203.67611424     A.U. after   12 cycles
 SCF Done:  E(RB3LYP) =  -1203.69036937     A.U. after   11 cycles
 SCF Done:  E(RB3LYP) =  -1203.69046094     A.U. after   11 cycles
 SCF Done:  E(RB3LYP) =  -1203.69213812     A.U. after   11 cycles
 SCF Done:  E(RB3LYP) =  -1203.69301440     A.U. after   11 cycles
 SCF Done:  E(RB3LYP) =  -1203.69195875     A.U. after   11 cycles
 SCF Done:  E(RB3LYP) =  -1203.69331698     A.U. after   11 cycles
 SCF Done:  E(RB3LYP) =  -1203.69299634     A.U. after   10 cycles
 SCF Done:  E(RB3LYP) =  -1203.69411152     A.U. after    8 cycles
 SCF Done:  E(RB3LYP) =  -1203.69408382     A.U. after    9 cycles
 SCF Done:  E(RB3LYP) =  -1203.69408934     A.U. after    7 cycles
 SCF Done:  E(RB3LYP) =  -1203.69410992     A.U. after    9 cycles
 SCF Done:  E(RB3LYP) =  -1203.69411149     A.U. after    8 cycles
 SCF Done:  E(RB3LYP) =  -1203.69408878     A.U. after    9 cycles
 Optimization completed.
    -- Stationary point found.
 Normal termination of Gaussian 16 at Sun Jul 18 16:55:26 2021.

 --------------------------------------------------------------------
 #P Geom=AllCheck Guess=TCheck SCRF=Check GenChk RB3LYP/6-31G(d) Freq
 --------------------------------------------------------------------

 Structure from the checkpoint file:  "SET_328_BBB227_conf1.geo_075_180_060.chk"
 ---------------------------------------------
 SET_328_BBB227_conf1.geo_075_180_060 geometry
 ---------------------------------------------
 Charge =  1 Multiplicity = 1

 SCF Done:  E(RB3LYP) =  -1203.69408878     A.U. after    1 cycles

  Exact polarizability: 292.492  -3.041 207.870 -12.718  -3.840 216.475
 Approx polarizability: 306.507  -4.799 247.030 -19.482  -7.216 286.745

                      1                      2                      3
                      A                      A                      A
 Frequencies --     29.8309                35.2037                51.3506
 Red. masses --      5.0357                 3.8347                 5.8957
 Frc consts  --      0.0026                 0.0028                 0.0092
 IR Inten    --      6.8133                 6.6302                11.3512

                      4                      5                      6
                      A                      A                      A
 Frequencies --     69.2222                79.6194                91.2812
 Red. masses --      4.5634                 3.5002                 4.4761
 Frc consts  --      0.0129                 0.0131                 0.0220
 IR Inten    --      1.7650                 3.9533                16.1709

                      7                      8                      9
                      A                      A                      A
 Frequencies --    108.4440               131.5452               160.4964
 Red. masses --      4.3042                 3.5410                 3.0571
 Frc consts  --      0.0298                 0.0361                 0.0464
 IR Inten    --      4.9065                 3.5413                 3.0060

                     10                     11                     12
                      A                      A                      A
 Frequencies --    207.3539               214.9248               234.7077
 Red. masses --      3.3342                 3.5080                 1.8445
 Frc consts  --      0.0845                 0.0955                 0.0599
 IR Inten    --      4.1978                 2.4930                 0.1319

                     13                     14                     15
                      A                      A                      A
 Frequencies --    251.5204               290.4270               318.2345
 Red. masses --      3.4845                 4.1462                 2.4226
 Frc consts  --      0.1299                 0.2061                 0.1446
 IR Inten    --     12.9099                 5.4871                11.7905

                     16                     17                     18
                      A                      A                      A
 Frequencies --    343.1547               348.5053               375.8691
 Red. masses --      2.0249                 3.0953                 3.7143
 Frc consts  --      0.1405                 0.2215                 0.3092
 IR Inten    --      8.8946                27.7500                 4.4333

                     19                     20                     21
                      A                      A                      A
 Frequencies --    392.5959               424.6936               442.8973
 Red. masses --      2.3478                 2.1955                 2.2196
 Frc consts  --      0.2132                 0.2333                 0.2565
 IR Inten    --     12.5251                28.5109                10.0180

                     22                     23                     24
                      A                      A                      A
 Frequencies --    454.2361               460.8594               462.5269
 Red. masses --      2.6041                 2.4901                 2.6334
 Frc consts  --      0.3166                 0.3116                 0.3319
 IR Inten    --     20.6959                 5.0743                14.8833

                     25                     26                     27
                      A                      A                      A
 Frequencies --    488.9687               494.4387               512.0710
 Red. masses --      2.1246                 1.8169                 2.6620
 Frc consts  --      0.2993                 0.2617                 0.4113
 IR Inten    --     22.7024                24.4410                 3.9053

                     28                     29                     30
                      A                      A                      A
 Frequencies --    558.1294               591.9474               637.9303
 Red. masses --      2.2876                 2.8072                 6.7192
 Frc consts  --      0.4199                 0.5796                 1.6111
 IR Inten    --      6.6015                16.0602                16.7261

                     31                     32                     33
                      A                      A                      A
 Frequencies --    694.9682               708.0564               746.1387
 Red. masses --      2.5797                 4.2358                 1.4462
 Frc consts  --      0.7341                 1.2512                 0.4744
 IR Inten    --      7.7634                18.8780                17.2376

                     34                     35                     36
                      A                      A                      A
 Frequencies --    757.3594               789.2299               802.4996
 Red. masses --      3.1191                 1.3444                 1.4459
 Frc consts  --      1.0541                 0.4934                 0.5486
 IR Inten    --      4.0947                42.5850                 0.3088

                     37                     38                     39
                      A                      A                      A
 Frequencies --    808.0658               820.5730               826.1592
 Red. masses --      2.4441                 1.5538                 3.4768
 Frc consts  --      0.9403                 0.6164                 1.3982
 IR Inten    --      2.6825                 0.3001                 2.9729

                     40                     41                     42
                      A                      A                      A
 Frequencies --    854.4527               860.2398               894.8768
 Red. masses --      3.8113                 2.5414                 2.3349
 Frc consts  --      1.6395                 1.1081                 1.1017
 IR Inten    --      5.9927                 0.6942                11.8482

                     43                     44                     45
                      A                      A                      A
 Frequencies --    908.9260               914.3438               921.4948
 Red. masses --      1.8107                 3.1998                 2.7969
 Frc consts  --      0.8813                 1.5761                 1.3993
 IR Inten    --      9.5194                 4.5334                 4.5430

                     46                     47                     48
                      A                      A                      A
 Frequencies --    938.4231               942.3385               944.6893
 Red. masses --      1.5502                 1.8323                 3.3676
 Frc consts  --      0.8044                 0.9586                 1.7707
 IR Inten    --      1.6501                 3.3209                42.9144

                     49                     50                     51
                      A                      A                      A
 Frequencies --    967.3697               995.9131               998.8849
 Red. masses --      2.0165                 2.2746                 1.7663
 Frc consts  --      1.1118                 1.3292                 1.0384
 IR Inten    --      2.9183                39.8513                11.1173

                     52                     53                     54
                      A                      A                      A
 Frequencies --   1008.8247              1017.9198              1029.8088
 Red. masses --      2.2640                 3.0581                 2.4440
 Frc consts  --      1.3576                 1.8669                 1.5271
 IR Inten    --     80.3663                 2.1687                18.9040

                     55                     56                     57
                      A                      A                      A
 Frequencies --   1042.1200              1070.2929              1094.4428
 Red. masses --      1.7470                 1.3509                 1.1134
 Frc consts  --      1.1178                 0.9118                 0.7857
 IR Inten    --      1.7447                 3.5485                 0.2581

                     58                     59                     60
                      A                      A                      A
 Frequencies --   1095.8958              1111.1709              1115.7897
 Red. masses --      3.1142                 2.8574                 2.6828
 Frc consts  --      2.2036                 2.0787                 1.9679
 IR Inten    --      6.2373                 3.4824                22.6749

                     61                     62                     63
                      A                      A                      A
 Frequencies --   1126.4291              1177.4218              1187.9255
 Red. masses --      3.1924                 2.2169                 1.3054
 Frc consts  --      2.3866                 1.8108                 1.0854
 IR Inten    --     45.4723                29.6588                 5.2652

                     64                     65                     66
                      A                      A                      A
 Frequencies --   1198.5621              1207.0711              1215.1740
 Red. masses --      2.3574                 1.4004                 1.5807
 Frc consts  --      1.9953                 1.2022                 1.3753
 IR Inten    --     24.3075                28.7515                52.9864

                     67                     68                     69
                      A                      A                      A
 Frequencies --   1227.4534              1264.8591              1273.8378
 Red. masses --      1.8321                 1.0966                 2.5337
 Frc consts  --      1.6263                 1.0336                 2.4224
 IR Inten    --    144.4836                 0.1283                50.1206

                     70                     71                     72
                      A                      A                      A
 Frequencies --   1284.4597              1292.0317              1294.6932
 Red. masses --      1.3379                 1.2735                 1.3235
 Frc consts  --      1.3005                 1.2525                 1.3071
 IR Inten    --     22.7520                28.9522                 3.4229

                     73                     74                     75
                      A                      A                      A
 Frequencies --   1297.2100              1307.3928              1315.6173
 Red. masses --      1.2834                 1.3979                 1.3866
 Frc consts  --      1.2725                 1.4078                 1.4140
 IR Inten    --     11.1111                67.6019                24.2502

                     76                     77                     78
                      A                      A                      A
 Frequencies --   1338.2145              1343.8261              1354.2193
 Red. masses --      1.2844                 1.2313                 1.2916
 Frc consts  --      1.3552                 1.3101                 1.3956
 IR Inten    --     11.4454                 2.2963                 1.9765

                     79                     80                     81
                      A                      A                      A
 Frequencies --   1360.5488              1371.4891              1380.6196
 Red. masses --      1.4976                 1.5195                 1.6734
 Frc consts  --      1.6333                 1.6840                 1.8794
 IR Inten    --     47.9819               137.0996               125.4655

                     82                     83                     84
                      A                      A                      A
 Frequencies --   1382.3476              1387.5107              1389.5342
 Red. masses --      1.3982                 1.4175                 1.3929
 Frc consts  --      1.5742                 1.6078                 1.5845
 IR Inten    --      2.7248               157.1924                34.8980

                     85                     86                     87
                      A                      A                      A
 Frequencies --   1394.4162              1397.1567              1403.7881
 Red. masses --      1.4126                 1.4805                 1.5544
 Frc consts  --      1.6182                 1.7027                 1.8048
 IR Inten    --    110.1862                 0.5614                28.8874

                     88                     89                     90
                      A                      A                      A
 Frequencies --   1411.3742              1412.9264              1428.6639
 Red. masses --      1.5441                 1.5216                 1.3696
 Frc consts  --      1.8122                 1.7898                 1.6470
 IR Inten    --     21.6130                33.7858                31.6225

                     91                     92                     93
                      A                      A                      A
 Frequencies --   1454.9198              1495.4219              1506.1355
 Red. masses --      1.8545                 1.1042                 1.0876
 Frc consts  --      2.3129                 1.4548                 1.4536
 IR Inten    --    129.1419                14.5042                 0.8458

                     94                     95                     96
                      A                      A                      A
 Frequencies --   1506.8569              1511.9115              1513.1020
 Red. masses --      1.0927                 1.0931                 1.0984
 Frc consts  --      1.4618                 1.4722                 1.4816
 IR Inten    --      3.6967                 4.6146                 6.2049

                     97                     98                     99
                      A                      A                      A
 Frequencies --   1517.3748              1520.9493              1522.8082
 Red. masses --      1.1036                 1.0913                 1.1445
 Frc consts  --      1.4970                 1.4873                 1.5637
 IR Inten    --     20.2395                16.4390                29.6155

                    100                    101                    102
                      A                      A                      A
 Frequencies --   1533.8722              1556.7589              1576.7662
 Red. masses --      1.1013                 1.1035                 1.7369
 Frc consts  --      1.5267                 1.5756                 2.5442
 IR Inten    --      0.9230               224.5478               639.7980

                    103                    104                    105
                      A                      A                      A
 Frequencies --   1675.9466              1710.8793              3029.0407
 Red. masses --      6.0411                 7.0609                 1.0680
 Frc consts  --      9.9973                12.1773                 5.7731
 IR Inten    --      0.0351                92.0719                29.8543

                    106                    107                    108
                      A                      A                      A
 Frequencies --   3038.3962              3039.8202              3045.1540
 Red. masses --      1.0673                 1.0707                 1.0632
 Frc consts  --      5.8051                 5.8295                 5.8087
 IR Inten    --     25.9190                34.2476                26.9513

                    109                    110                    111
                      A                      A                      A
 Frequencies --   3045.8810              3049.0355              3069.1159
 Red. masses --      1.0728                 1.0623                 1.0736
 Frc consts  --      5.8643                 5.8188                 5.9585
 IR Inten    --     58.1108                65.8683                62.4229

                    112                    113                    114
                      A                      A                      A
 Frequencies --   3073.6626              3075.9747              3079.1986
 Red. masses --      1.0753                 1.0603                 1.0676
 Frc consts  --      5.9855                 5.9109                 5.9641
 IR Inten    --     10.2623                25.8778                14.5369

                    115                    116                    117
                      A                      A                      A
 Frequencies --   3089.8432              3092.3049              3094.2088
 Red. masses --      1.0953                 1.0934                 1.0996
 Frc consts  --      6.1612                 6.1601                 6.2026
 IR Inten    --     96.1841                86.3917                32.5159

                    118                    119                    120
                      A                      A                      A
 Frequencies --   3097.8903              3107.1762              3121.1862
 Red. masses --      1.1009                 1.0935                 1.0885
 Frc consts  --      6.2249                 6.2203                 6.2477
 IR Inten    --     85.5537                31.1420                26.8113

                    121                    122                    123
                      A                      A                      A
 Frequencies --   3122.9640              3126.1545              3179.7103
 Red. masses --      1.1052                 1.1046                 1.0922
 Frc consts  --      6.3505                 6.3600                 6.5060
 IR Inten    --     24.2349                58.4325                32.5019

                    124                    125                    126
                      A                      A                      A
 Frequencies --   3188.4418              3298.9328              3318.9862
 Red. masses --      1.0921                 1.0636                 1.1007
 Frc consts  --      6.5415                 6.8202                 7.1441
 IR Inten    --      7.9216               409.4972                 9.4782

                    127                    128                    129
                      A                      A                      A
 Frequencies --   3327.8621              3354.2004              3607.5163
 Red. masses --      1.1017                 1.0812                 1.0748
 Frc consts  --      7.1884                 7.1670                 8.2414
 IR Inten    --     14.7001               314.3221                40.3548

 - Thermochemistry -
 -------------------
 Temperature   298.150 Kelvin.  Pressure   1.00000 Atm.
 Atom     1 has atomic number 16 and mass  31.97207

 Molecular mass:   293.17999 amu.
 Principal axes and moments of inertia in atomic units:
                           1         2         3
     Eigenvalues --  2718.88575********************
           X            0.99997  -0.00830   0.00007
           Y            0.00829   0.99965   0.02496
           Z           -0.00028  -0.02496   0.99969
 This molecule is an asymmetric top.
 Rotational symmetry number  1.
 Warning -- assumption of classical behavior for rotation
           may cause significant error
 Rotational temperatures (Kelvin)      0.03186     0.00596     0.00558
 Rotational constants (GHZ):           0.66378     0.12418     0.11630
 Zero-point vibrational energy    1056586.0 (Joules/Mol)
                                  252.53012 (Kcal/Mol)
 Warning -- explicit consideration of  29 degrees of freedom as
           vibrations may cause significant error
 Vibrational temperatures:     42.92    50.65    73.88    99.60   114.55
          (Kelvin)            131.33   156.03   189.26   230.92   298.34
                              309.23   337.69   361.88   417.86   457.87
                              493.72   501.42   540.79   564.86   611.04
                              637.23   653.54   663.07   665.47   703.52
                              711.39   736.76   803.02   851.68   917.84
                              999.90  1018.74  1073.53  1089.67  1135.53
                             1154.62  1162.63  1180.62  1188.66  1229.37
                             1237.69  1287.53  1307.74  1315.54  1325.83
                             1350.18  1355.81  1359.20  1391.83  1432.90
                             1437.17  1451.47  1464.56  1481.67  1499.38
                             1539.91  1574.66  1576.75  1598.73  1605.37
                             1620.68  1694.05  1709.16  1724.46  1736.71
                             1748.36  1766.03  1819.85  1832.77  1848.05
                             1858.95  1862.77  1866.40  1881.05  1892.88
                             1925.39  1933.47  1948.42  1957.53  1973.27
                             1986.40  1988.89  1996.32  1999.23  2006.25
                             2010.20  2019.74  2030.65  2032.89  2055.53
                             2093.31  2151.58  2166.99  2168.03  2175.30
                             2177.02  2183.16  2188.31  2190.98  2206.90
                             2239.83  2268.61  2411.31  2461.57  4358.11
                             4371.57  4373.62  4381.30  4382.34  4386.88
                             4415.77  4422.31  4425.64  4430.28  4445.60
                             4449.14  4451.88  4457.17  4470.53  4490.69
                             4493.25  4497.84  4574.89  4587.46  4746.43
                             4775.28  4788.05  4825.95  5190.41

 Zero-point correction=                           0.402432 (Hartree/Particle)
 Thermal correction to Energy=                    0.420998
 Thermal correction to Enthalpy=                  0.421942
 Thermal correction to Gibbs Free Energy=         0.354600
 Sum of electronic and zero-point Energies=          -1203.291656
 Sum of electronic and thermal Energies=             -1203.273091
 Sum of electronic and thermal Enthalpies=           -1203.272147
 Sum of electronic and thermal Free Energies=        -1203.339489

                     E (Thermal)             CV                S
                      KCal/Mol        Cal/Mol-Kelvin    Cal/Mol-Kelvin
 Total                  264.180             73.951            141.734
 Electronic               0.000              0.000              0.000
 Translational            0.889              2.981             42.924
 Rotational               0.889              2.981             34.771
 Vibrational            262.403             67.989             64.039
 Vibration     1          0.594              1.984              5.841
 Vibration     2          0.594              1.982              5.512
 Vibration     3          0.596              1.977              4.765
 Vibration     4          0.598              1.969              4.175
 Vibration     5          0.600              1.963              3.900
 Vibration     6          0.602              1.955              3.632
 Vibration     7          0.606              1.942              3.297
 Vibration     8          0.612              1.922              2.923
 Vibration     9          0.622              1.891              2.544
 Vibration    10          0.641              1.829              2.067
 Vibration    11          0.645              1.818              2.001
 Vibration    12          0.655              1.788              1.843
 Vibration    13          0.663              1.760              1.720
 Vibration    14          0.686              1.692              1.471
 Vibration    15          0.705              1.639              1.319
 Vibration    16          0.722              1.589              1.197
 Vibration    17          0.726              1.578              1.173
 Vibration    18          0.747              1.522              1.056
 Vibration    19          0.760              1.486              0.990
 Vibration    20          0.787              1.417              0.876
 Vibration    21          0.803              1.377              0.818
 Vibration    22          0.813              1.352              0.783
 Vibration    23          0.819              1.337              0.764
 Vibration    24          0.820              1.333              0.759
 Vibration    25          0.845              1.274              0.686
 Vibration    26          0.850              1.262              0.672
 Vibration    27          0.867              1.223              0.629
 Vibration    28          0.914              1.122              0.528
 Vibration    29          0.949              1.049              0.464

 Optimization completed.
    -- Stationary point found.
 Normal termination of Gaussian 16 at Sun Jul 18 17:52:28 2021.

 ----------------------------------------------------------------------
 #p b3lyp/6-31G(d) scrf=(iefpcm,read,solvent=n-octanol) geom=allcheck g
 uess=read
 ----------------------------------------------------------------------

 Structure from the checkpoint file:  "SET_328_BBB227_conf1.geo_075_180_060.chk"
 ---------------------------------------------
 SET_328_BBB227_conf1.geo_075_180_060 geometry
 ---------------------------------------------
 Charge =  1 Multiplicity = 1

 SCF Done:  E(RB3LYP) =  -1203.69519276     A.U. after    1 cycles
 Normal termination of Gaussian 16 at Sun Jul 18 17:53:45 2021.

 -----------------------------
 #p B3LYP/6-31G* geom=allcheck
 -----------------------------

 Structure from the checkpoint file:  "SET_328_BBB227_conf1.geo_075_180_060.chk"
 ---------------------------------------------
 SET_328_BBB227_conf1.geo_075_180_060 geometry
 ---------------------------------------------
 Charge =  1 Multiplicity = 1

 SCF Done:  E(RB3LYP) =  -1203.57209098     A.U. after   24 cycles
 Normal termination of Gaussian 16 at Sun Jul 18 17:58:35 2021.
 Gaussian 16:  ES64L-G16RevA.03 25-Dec-2016

 --------------------------------------------------------
 #p mp2/aug-cc-pVDZ scf=tight maxdisk=180GB geom=allcheck
 --------------------------------------------------------

 Structure from the checkpoint file:  "SET_328_BBB227_conf1.geo_075_180_060.chk"
 ---------------------------------------------
 SET_328_BBB227_conf1.geo_075_180_060 geometry
 ---------------------------------------------
 Charge =  1 Multiplicity = 1

                         Standard orientation:
 ---------------------------------------------------------------------
 Center     Atomic      Atomic             Coordinates (Angstroms)
 Number     Number       Type             X           Y           Z
 ---------------------------------------------------------------------
      1         16           0        1.186968    1.669103   -1.621835
      2          6           0        0.928967    1.033929   -0.059014
      3          7           0        1.829418    0.208008    0.528552
      4          6           0        3.081857   -0.265703   -0.067338
      5          6           0        4.274825    0.614881    0.337439
      6          6           0        5.584899    0.086377   -0.263174
      7          6           0        5.825442   -1.381233    0.111912
      8          6           0        4.631413   -2.258566   -0.284182
      9          6           0        3.317727   -1.734915    0.314541
     10          1           0        3.359876   -1.823547    1.409763
     11          1           0        2.470637   -2.342006   -0.021895
     12          1           0        4.795151   -3.293661    0.033384
     13          1           0        4.544555   -2.278609   -1.378311
     14          1           0        5.985926   -1.456503    1.195760
     15          1           0        6.739266   -1.750532   -0.366156
     16          1           0        6.423002    0.708369    0.068562
     17          1           0        5.542598    0.178293   -1.356443
     18          1           0        4.353068    0.628490    1.433255
     19          1           0        4.086339    1.642843    0.014136
     20          1           0        2.943019   -0.188081   -1.147672
     21          1           0        1.743477    0.040346    1.522197
     22          7           0       -0.192895    1.327194    0.671684
     23          6           0       -0.698364    0.527310    1.793121
     24          6           0       -1.905784   -0.316046    1.360106
     25          1           0       -1.577614   -1.057816    0.625170
     26          1           0       -2.292044   -0.861130    2.227116
     27          1           0        0.067101   -0.132698    2.194033
     28          1           0       -0.981240    1.215060    2.598039
     29          6           0       -1.214904    2.246938    0.168633
     30          1           0       -0.768823    2.841802   -0.623380
     31          1           0       -1.500378    2.908783    0.996749
     32          6           0       -2.437356    1.485835   -0.353914
     33          1           0       -2.137111    0.891545   -1.223137
     34          1           0       -3.199290    2.198174   -0.685308
     35          6           0       -3.023485    0.553917    0.737202
     36          1           0       -3.474406    1.169886    1.523031
     37          6           0       -4.091071   -0.321199    0.163537
     38          6           0       -5.398950   -0.400818    0.449293
     39          1           0       -6.035343    0.117390    1.147921
     40          7           0       -5.973725   -1.433532   -0.420855
     41          1           0       -6.728720   -1.079879   -1.041218
     42          6           0       -4.789583   -1.878301   -1.198127
     43          1           0       -4.912654   -2.652506   -1.940107
     44          7           0       -3.740073   -1.254042   -0.868193
     45          1           0       -6.410747   -2.217485    0.105347
 ---------------------------------------------------------------------

 SCF Done:  E(RHF) =  -1197.75039141     A.U. after   16 cycles
 E2 =    -0.2971199747D+01 EUMP2 =    -0.12007215911539D+04

 The electronic state is 1-A.
 Alpha  occ. eigenvalues --  -91.95283 -15.91289 -15.78965 -15.68778 -15.67286
 Alpha  occ. eigenvalues --  -11.53675 -11.47864 -11.46801 -11.45197 -11.38958
 Alpha  occ. eigenvalues --  -11.38411 -11.36001 -11.35902 -11.34786 -11.33158
 Alpha  occ. eigenvalues --  -11.29346 -11.28403 -11.28162 -11.27789 -11.27730
 Alpha  occ. eigenvalues --   -8.95579  -6.63826  -6.63520  -6.63460  -1.57172
 Alpha  occ. eigenvalues --   -1.42565  -1.39739  -1.31430  -1.26070  -1.19540
 Alpha  occ. eigenvalues --   -1.16988  -1.14199  -1.09231  -1.06592  -1.05425
 Alpha  occ. eigenvalues --   -1.04366  -1.02246  -0.97887  -0.97327  -0.96791
 Alpha  occ. eigenvalues --   -0.94843  -0.91017  -0.89723  -0.89117  -0.84685
 Alpha  occ. eigenvalues --   -0.84154  -0.82216  -0.80641  -0.80052  -0.75740
 Alpha  occ. eigenvalues --   -0.74554  -0.73345  -0.72280  -0.71421  -0.69508
 Alpha  occ. eigenvalues --   -0.68650  -0.67264  -0.66621  -0.66158  -0.65883
 Alpha  occ. eigenvalues --   -0.65027  -0.64639  -0.62409  -0.61583  -0.60779
 Alpha  occ. eigenvalues --   -0.59459  -0.58932  -0.58701  -0.56442  -0.55969
 Alpha  occ. eigenvalues --   -0.54737  -0.54325  -0.53814  -0.51539  -0.50462
 Alpha  occ. eigenvalues --   -0.49767  -0.44739  -0.38539  -0.38131
 Alpha virt. eigenvalues --   -0.10945  -0.09462  -0.07582  -0.07127  -0.05858
 Alpha virt. eigenvalues --   -0.04582  -0.04050  -0.03641  -0.02865  -0.02221
 Alpha virt. eigenvalues --   -0.01569  -0.01491  -0.01036  -0.00432  -0.00265

 Mulliken charges:
               1
     1  S   -0.292117
     2  C   -0.187236
     3  N   -0.311837
     4  C   -0.630304
     5  C    0.520275
     6  C    0.381489
     7  C    0.423800
     8  C    0.409729
     9  C    0.751700
    10  H   -0.161880
    11  H   -0.180657
    12  H   -0.109200
    13  H   -0.103961
    14  H   -0.116953
    15  H   -0.134587
    16  H   -0.110904
    17  H   -0.101694
    18  H   -0.156261
    19  H   -0.119921
    20  H   -0.309192
    21  H   -0.113360
    22  N   -0.120059
    23  C    0.815533
    24  C    0.505064
    25  H   -0.092910
    26  H   -0.225292
    27  H   -0.226736
    28  H   -0.214478
    29  C    0.772735
    30  H   -0.170130
    31  H   -0.184019
    32  C    0.591167
    33  H   -0.043343
    34  H   -0.237695
    35  C    0.131574
    36  H   -0.320239
    37  C    0.164561
    38  C    0.987534
    39  H   -0.298939
    40  N   -0.797657
    41  H    0.238342
    42  C    0.875133
    43  H   -0.197707
    44  N   -0.539162
    45  H    0.239795
 Sum of Mulliken charges =   1.00000

 Dipole moment (field-independent basis, Debye):
    X=            -25.7152    Y=             -7.6266    Z=              3.3183  Tot=             27.0268
 Quadrupole moment (field-independent basis, Debye-Ang):
   XX=             44.5875   YY=           -116.2858   ZZ=           -123.4067
   XY=             30.5257   XZ=             13.9385   YZ=             11.0913

 Normal termination of Gaussian 16 at Sun Jul 18 20:02:16 2021.
