 Gaussian 16, Revision A.03,

 ---------------------------------------------------------------
 #p b3lyp/6-31G(d) opt freq scrf=(iefpcm,read,solvent=n-octanol)
 ---------------------------------------------------------------

 ---------------------------------------------
 SET_328_BBB321_conf1.geo_195_330_315 geometry
 ---------------------------------------------
 Symbolic Z-matrix:
 Charge =  1 Multiplicity = 1

 SCF Done:  E(RB3LYP) =  -1212.48648664     A.U. after   20 cycles
 SCF Done:  E(RB3LYP) =  -1212.61248005     A.U. after   14 cycles
 SCF Done:  E(RB3LYP) =  -1212.67431547     A.U. after   14 cycles
 SCF Done:  E(RB3LYP) =  -1212.72935330     A.U. after   13 cycles
 SCF Done:  E(RB3LYP) =  -1212.76417633     A.U. after   13 cycles
 SCF Done:  E(RB3LYP) =  -1212.78357231     A.U. after   12 cycles
 SCF Done:  E(RB3LYP) =  -1212.80156406     A.U. after   14 cycles
 SCF Done:  E(RB3LYP) =  -1212.81176912     A.U. after   11 cycles
 SCF Done:  E(RB3LYP) =  -1212.81788880     A.U. after   14 cycles
 SCF Done:  E(RB3LYP) =  -1212.82001623     A.U. after   11 cycles
 SCF Done:  E(RB3LYP) =  -1212.82114616     A.U. after    7 cycles
 SCF Done:  E(RB3LYP) =  -1212.82114811     A.U. after    7 cycles
 SCF Done:  E(RB3LYP) =  -1212.82114784     A.U. after    7 cycles
 SCF Done:  E(RB3LYP) =  -1212.82114661     A.U. after    7 cycles
 SCF Done:  E(RB3LYP) =  -1212.82114658     A.U. after    7 cycles
 SCF Done:  E(RB3LYP) =  -1212.82114661     A.U. after    7 cycles
 Optimization completed.
    -- Stationary point found.
 Normal termination of Gaussian 16 at Sun Jul 18 18:13:04 2021.

 --------------------------------------------------------------------
 #P Geom=AllCheck Guess=TCheck SCRF=Check GenChk RB3LYP/6-31G(d) Freq
 --------------------------------------------------------------------

 Structure from the checkpoint file:  "SET_328_BBB321_conf1.geo_195_330_315.chk"
 ---------------------------------------------
 SET_328_BBB321_conf1.geo_195_330_315 geometry
 ---------------------------------------------
 Charge =  1 Multiplicity = 1

 SCF Done:  E(RB3LYP) =  -1212.82114661     A.U. after    1 cycles

  Exact polarizability: 313.444  -1.136 294.227  10.697   0.739  83.803
 Approx polarizability: 375.949  -6.717 361.990  16.074   0.972 112.431

 ******    1 imaginary frequencies (negative Signs) ******

                      1                      2                      3
                      A                      A                      A
 Frequencies --     -9.4420                42.4747                54.0272
 Red. masses --      5.1032                 6.6787                 4.9898
 Frc consts  --      0.0003                 0.0071                 0.0086
 IR Inten    --      8.5281                11.3497                 6.7542

                      4                      5                      6
                      A                      A                      A
 Frequencies --     57.7784                61.0242                84.6668
 Red. masses --      3.8214                 1.3334                 3.3738
 Frc consts  --      0.0075                 0.0029                 0.0142
 IR Inten    --      4.0976                 4.4451                 7.4548

                      7                      8                      9
                      A                      A                      A
 Frequencies --     98.3907               118.6525               123.9350
 Red. masses --      4.3598                 5.2531                 5.5255
 Frc consts  --      0.0249                 0.0436                 0.0500
 IR Inten    --      5.2379                 3.1229                 7.5074

                     10                     11                     12
                      A                      A                      A
 Frequencies --    187.2781               217.4700               252.1713
 Red. masses --      1.1782                 5.1907                 4.5955
 Frc consts  --      0.0243                 0.1446                 0.1722
 IR Inten    --    315.0000                 2.8708                 2.8460

                     13                     14                     15
                      A                      A                      A
 Frequencies --    263.8145               277.1161               282.8411
 Red. masses --      4.3964                 4.8748                 5.1788
 Frc consts  --      0.1803                 0.2206                 0.2441
 IR Inten    --      3.6907                 2.5524                 1.1791

                     16                     17                     18
                      A                      A                      A
 Frequencies --    318.2969               331.6170               348.2850
 Red. masses --      4.4782                 5.9254                 5.5332
 Frc consts  --      0.2673                 0.3839                 0.3955
 IR Inten    --     16.6359                10.1377                 2.3033

                     19                     20                     21
                      A                      A                      A
 Frequencies --    364.5743               396.3970               409.9366
 Red. masses --      1.2615                 3.7808                 1.2346
 Frc consts  --      0.0988                 0.3500                 0.1222
 IR Inten    --      3.7095                33.9084               337.2641

                     22                     23                     24
                      A                      A                      A
 Frequencies --    452.8493               495.2276               508.0806
 Red. masses --      3.3717                 4.9869                 1.5286
 Frc consts  --      0.4074                 0.7206                 0.2325
 IR Inten    --      7.0030                 1.7988               139.9787

                     25                     26                     27
                      A                      A                      A
 Frequencies --    536.8140               547.2659               548.4308
 Red. masses --      4.0244                 2.4010                 1.6423
 Frc consts  --      0.6833                 0.4237                 0.2910
 IR Inten    --     25.1578                29.8160               113.4884

                     28                     29                     30
                      A                      A                      A
 Frequencies --    570.3473               596.1145               622.9524
 Red. masses --      2.3415                 3.2184                 9.5386
 Frc consts  --      0.4488                 0.6738                 2.1809
 IR Inten    --      3.5602                12.5262                 2.0631

                     31                     32                     33
                      A                      A                      A
 Frequencies --    635.9429               667.4543               669.2335
 Red. masses --      2.2023                 1.3717                 3.7376
 Frc consts  --      0.5248                 0.3600                 0.9863
 IR Inten    --      8.6120                12.9004                 7.3976

                     34                     35                     36
                      A                      A                      A
 Frequencies --    692.0876               695.9637               700.9621
 Red. masses --      6.2813                 4.0509                 2.3028
 Frc consts  --      1.7727                 1.1560                 0.6667
 IR Inten    --     16.0111                 0.5898                 4.0598

                     37                     38                     39
                      A                      A                      A
 Frequencies --    707.5418               752.0152               806.4077
 Red. masses --      2.2414                 1.7682                 1.7919
 Frc consts  --      0.6611                 0.5892                 0.6866
 IR Inten    --      0.6619                76.0616                33.0632

                     40                     41                     42
                      A                      A                      A
 Frequencies --    821.9752               873.7943               897.1264
 Red. masses --      6.0321                 5.9911                 2.4565
 Frc consts  --      2.4012                 2.6951                 1.1649
 IR Inten    --     29.4047                27.7604                 0.7992

                     43                     44                     45
                      A                      A                      A
 Frequencies --    901.3725               938.5667               971.1353
 Red. masses --      1.9056                 1.4352                 5.6664
 Frc consts  --      0.9122                 0.7449                 3.1486
 IR Inten    --      2.5121                18.8368                 4.5031

                     46                     47                     48
                      A                      A                      A
 Frequencies --    977.0190               992.1327              1006.3048
 Red. masses --      1.2743                 3.3262                 4.4657
 Frc consts  --      0.7167                 1.9290                 2.6644
 IR Inten    --      0.7800                 4.0058                11.1075

                     49                     50                     51
                      A                      A                      A
 Frequencies --   1015.4716              1039.3916              1069.9695
 Red. masses --      6.0256                 1.7227                 1.6725
 Frc consts  --      3.6609                 1.0965                 1.1281
 IR Inten    --      0.9595                15.0655                13.0188

                     52                     53                     54
                      A                      A                      A
 Frequencies --   1081.9149              1107.8448              1125.1048
 Red. masses --      1.3912                 1.8864                 1.6288
 Frc consts  --      0.9595                 1.3641                 1.2148
 IR Inten    --      2.9968                37.2761                 8.7944

                     55                     56                     57
                      A                      A                      A
 Frequencies --   1139.0821              1199.8302              1205.0364
 Red. masses --      1.6905                 1.1847                 1.5899
 Frc consts  --      1.2924                 1.0048                 1.3602
 IR Inten    --     15.9214                19.6372                11.4032

                     58                     59                     60
                      A                      A                      A
 Frequencies --   1250.1912              1268.5117              1293.3949
 Red. masses --      2.9218                 2.8057                 2.1362
 Frc consts  --      2.6906                 2.6600                 2.1055
 IR Inten    --    198.4439                99.0165               147.7665

                     61                     62                     63
                      A                      A                      A
 Frequencies --   1314.0753              1365.2792              1378.8223
 Red. masses --      1.8843                 3.0714                 6.3036
 Frc consts  --      1.9170                 3.3731                 7.0608
 IR Inten    --     28.3175                17.4376                62.8386

                     64                     65                     66
                      A                      A                      A
 Frequencies --   1429.8625              1460.5512              1498.2401
 Red. masses --      1.2440                 3.4375                 1.0456
 Frc consts  --      1.4985                 4.3205                 1.3828
 IR Inten    --     30.7377               264.9459                 9.4968

                     67                     68                     69
                      A                      A                      A
 Frequencies --   1501.4131              1514.6795              1529.7660
 Red. masses --      1.7834                 1.0994                 2.3373
 Frc consts  --      2.3686                 1.4861                 3.2226
 IR Inten    --     41.3992                19.3914                11.0731

                     70                     71                     72
                      A                      A                      A
 Frequencies --   1545.9420              1561.5362              1591.4692
 Red. masses --      2.2046                 3.9956                 2.5852
 Frc consts  --      3.1044                 5.7403                 3.8578
 IR Inten    --    433.0710               229.8438               238.9119

                     73                     74                     75
                      A                      A                      A
 Frequencies --   1599.4154              1622.9544              1649.5157
 Red. masses --      2.8331                 1.4448                 4.6168
 Frc consts  --      4.2700                 2.2422                 7.4012
 IR Inten    --     86.2277               289.7164               346.3053

                     76                     77                     78
                      A                      A                      A
 Frequencies --   1653.8654              1667.2840              1722.9516
 Red. masses --      1.8500                 4.9818                 3.5265
 Frc consts  --      2.9813                 8.1594                 6.1680
 IR Inten    --    759.9365                48.4419               881.3340

                     79                     80                     81
                      A                      A                      A
 Frequencies --   1763.6878              3087.0775              3157.3383
 Red. masses --      7.6502                 1.0356                 1.1012
 Frc consts  --     14.0205                 5.8151                 6.4676
 IR Inten    --    272.4856                 8.3255                 7.7358

                     82                     83                     84
                      A                      A                      A
 Frequencies --   3171.0261              3202.0243              3215.7692
 Red. masses --      1.1047                 1.0878                 1.0897
 Frc consts  --      6.5450                 6.5713                 6.6393
 IR Inten    --     20.5570                 9.5311                22.7781

                     85                     86                     87
                      A                      A                      A
 Frequencies --   3229.6174              3299.4743              3317.3393
 Red. masses --      1.0958                 1.0946                 1.0904
 Frc consts  --      6.7340                 7.0207                 7.0696
 IR Inten    --     26.6514                 7.4612                11.0280

                     88                     89                     90
                      A                      A                      A
 Frequencies --   3474.0995              3568.2290              3578.0897
 Red. masses --      1.0561                 1.0505                 1.0756
 Frc consts  --      7.5099                 7.8802                 8.1136
 IR Inten    --    435.0726               203.3604               339.2335

                     91                     92                     93
                      A                      A                      A
 Frequencies --   3637.7867              3640.2588              3680.2838
 Red. masses --      1.0775                 1.0990                 1.1083
 Frc consts  --      8.4011                 8.5808                 8.8448
 IR Inten    --     65.3302               401.8743               220.3456

 - Thermochemistry -
 -------------------
 Temperature   298.150 Kelvin.  Pressure   1.00000 Atm.
 Atom     1 has atomic number  6 and mass  12.00000

 Molecular mass:   276.09191 amu.
 Principal axes and moments of inertia in atomic units:
                           1         2         3
     Eigenvalues --  4036.795728273.76753**********
           X            0.99996   0.00835  -0.00101
           Y           -0.00835   0.99996   0.00102
           Z            0.00102  -0.00101   1.00000
 This molecule is an asymmetric top.
 Rotational symmetry number  1.
 Warning -- assumption of classical behavior for rotation
           may cause significant error
 Rotational temperatures (Kelvin)      0.02146     0.01047     0.00708
 Rotational constants (GHZ):           0.44707     0.21813     0.14756
    1 imaginary frequencies ignored.
 Zero-point vibrational energy     683673.8 (Joules/Mol)
                                  163.40196 (Kcal/Mol)
 Warning -- explicit consideration of  28 degrees of freedom as
           vibrations may cause significant error
 Vibrational temperatures:     61.11    77.73    83.13    87.80   121.82
          (Kelvin)            141.56   170.71   178.31   269.45   312.89
                              362.82   379.57   398.71   406.95   457.96
                              477.12   501.10   524.54   570.33   589.81
                              651.55   712.52   731.01   772.36   787.39
                              789.07   820.60   857.68   896.29   914.98
                              960.32   962.88   995.76  1001.34  1008.53
                             1017.99  1081.98  1160.24  1182.64  1257.20
                             1290.76  1296.87  1350.39  1397.25  1405.71
                             1427.46  1447.85  1461.04  1495.45  1539.45
                             1556.63  1593.94  1618.77  1638.89  1726.29
                             1733.78  1798.75  1825.11  1860.91  1890.66
                             1964.33  1983.82  2057.25  2101.41  2155.63
                             2160.20  2179.29  2200.99  2224.27  2246.70
                             2289.77  2301.20  2335.07  2373.29  2379.54
                             2398.85  2478.94  2537.55  4441.62  4542.71
                             4562.40  4607.00  4626.77  4646.70  4747.21
                             4772.91  4998.45  5133.89  5148.07  5233.96
                             5237.52  5295.11

 Zero-point correction=                           0.260398 (Hartree/Particle)
 Thermal correction to Energy=                    0.278067
 Thermal correction to Enthalpy=                  0.279012
 Thermal correction to Gibbs Free Energy=         0.214107
 Sum of electronic and zero-point Energies=          -1212.560749
 Sum of electronic and thermal Energies=             -1212.543079
 Sum of electronic and thermal Enthalpies=           -1212.542135
 Sum of electronic and thermal Free Energies=        -1212.607040

                     E (Thermal)             CV                S
                      KCal/Mol        Cal/Mol-Kelvin    Cal/Mol-Kelvin
 Total                  174.490             67.854            136.603
 Electronic               0.000              0.000              0.000
 Translational            0.889              2.981             42.745
 Rotational               0.889              2.981             34.368
 Vibrational            172.712             61.893             59.491
 Vibration     1          0.595              1.980              5.140
 Vibration     2          0.596              1.976              4.664
 Vibration     3          0.596              1.974              4.532
 Vibration     4          0.597              1.973              4.424
 Vibration     5          0.601              1.960              3.780
 Vibration     6          0.604              1.950              3.486
 Vibration     7          0.609              1.934              3.122
 Vibration     8          0.610              1.929              3.038
 Vibration     9          0.632              1.857              2.255
 Vibration    10          0.646              1.814              1.980
 Vibration    11          0.664              1.759              1.715
 Vibration    12          0.670              1.739              1.636
 Vibration    13          0.678              1.716              1.551
 Vibration    14          0.682              1.705              1.516
 Vibration    15          0.705              1.639              1.319
 Vibration    16          0.714              1.612              1.252
 Vibration    17          0.726              1.579              1.174
 Vibration    18          0.738              1.545              1.103
 Vibration    19          0.763              1.478              0.976
 Vibration    20          0.774              1.449              0.927
 Vibration    21          0.811              1.355              0.787
 Vibration    22          0.851              1.261              0.670
 Vibration    23          0.863              1.232              0.638
 Vibration    24          0.892              1.169              0.572
 Vibration    25          0.902              1.146              0.550
 Vibration    26          0.904              1.143              0.547
 Vibration    27          0.926              1.095              0.504
 Vibration    28          0.954              1.040              0.456

                           ! Non-Optimized Parameters !
 Normal termination of Gaussian 16 at Sun Jul 18 18:48:34 2021.

 ----------------------------------------------------------------------
 #p b3lyp/6-31G(d) scrf=(iefpcm,read,solvent=n-octanol) geom=allcheck g
 uess=read
 ----------------------------------------------------------------------

 Structure from the checkpoint file:  "SET_328_BBB321_conf1.geo_195_330_315.chk"
 ---------------------------------------------
 SET_328_BBB321_conf1.geo_195_330_315 geometry
 ---------------------------------------------
 Charge =  1 Multiplicity = 1

 SCF Done:  E(RB3LYP) =  -1212.82114661     A.U. after    1 cycles
 Normal termination of Gaussian 16 at Sun Jul 18 18:49:22 2021.

 -----------------------------
 #p B3LYP/6-31G* geom=allcheck
 -----------------------------

 Structure from the checkpoint file:  "SET_328_BBB321_conf1.geo_195_330_315.chk"
 ---------------------------------------------
 SET_328_BBB321_conf1.geo_195_330_315 geometry
 ---------------------------------------------
 Charge =  1 Multiplicity = 1

 SCF Done:  E(RB3LYP) =  -1212.70346999     A.U. after   17 cycles
 Normal termination of Gaussian 16 at Sun Jul 18 18:52:02 2021.
 Gaussian 16:  ES64L-G16RevA.03 25-Dec-2016

 --------------------------------------------------------
 #p mp2/aug-cc-pVDZ scf=tight maxdisk=180GB geom=allcheck
 --------------------------------------------------------

 Structure from the checkpoint file:  "SET_328_BBB321_conf1.geo_195_330_315.chk"
 ---------------------------------------------
 SET_328_BBB321_conf1.geo_195_330_315 geometry
 ---------------------------------------------
 Charge =  1 Multiplicity = 1

                         Standard orientation:
 ---------------------------------------------------------------------
 Center     Atomic      Atomic             Coordinates (Angstroms)
 Number     Number       Type             X           Y           Z
 ---------------------------------------------------------------------
      1          6           0       -4.510806    2.925730    0.221924
      2          1           0       -4.382985    3.682383   -0.555462
      3          1           0       -4.480114    3.438882    1.186617
      4          1           0       -5.489135    2.456548    0.104227
      5          6           0       -3.348997    1.953714    0.150632
      6          8           0       -2.184849    2.341328    0.201888
      7          7           0       -3.713977    0.635185    0.034257
      8          1           0       -4.706157    0.448274   -0.004527
      9          6           0       -2.888401   -0.502369   -0.044647
     10          6           0       -3.507901   -1.750709   -0.205577
     11          6           0       -2.731431   -2.904176   -0.288016
     12          6           0       -1.343332   -2.833984   -0.214132
     13          1           0       -0.751313   -3.738139   -0.298496
     14          1           0       -3.216745   -3.865412   -0.418182
     15          1           0       -4.589637   -1.816578   -0.269519
     16          6           0       -1.494189   -0.427332    0.035354
     17          1           0       -1.028911    0.533428    0.167359
     18          6           0       -0.718607   -1.589459   -0.048836
     19          6           0        0.747152   -1.478758    0.040567
     20          7           0        1.340712   -0.224133   -0.024480
     21          6           0        1.629334   -2.512248    0.192323
     22          1           0        1.424617   -3.567383    0.290087
     23         16           0        3.265795   -1.934663    0.249675
     24          6           0        2.634501   -0.305120    0.067771
     25          7           0        3.502809    0.776266    0.023875
     26          6           0        3.163795    2.088369   -0.163575
     27          7           0        4.148311    2.982447   -0.149722
     28          1           0        5.114301    2.697099   -0.037617
     29          1           0        3.950148    3.963410   -0.311910
     30          7           0        1.902589    2.440367   -0.350719
     31          1           0        1.178031    1.725679   -0.324150
     32          1           0        1.656546    3.418479   -0.454791
     33          1           0        4.497621    0.594437    0.121253
 ---------------------------------------------------------------------

 SCF Done:  E(RHF) =  -1207.16651535     A.U. after   19 cycles
 E2 =    -0.2815783333D+01 EUMP2 =    -0.12099822986804D+04

 The electronic state is 1-A.
 Alpha  occ. eigenvalues --  -92.12832 -20.62345 -15.80684 -15.79173 -15.77396
 Alpha  occ. eigenvalues --  -15.71226 -15.70063 -11.59679 -11.50708 -11.45760
 Alpha  occ. eigenvalues --  -11.40624 -11.38557 -11.38478 -11.35229 -11.33554
 Alpha  occ. eigenvalues --  -11.33313 -11.33098 -11.32674 -11.32606  -9.12998
 Alpha  occ. eigenvalues --   -6.81161  -6.81055  -6.80861  -1.54168  -1.47691
 Alpha  occ. eigenvalues --   -1.44607  -1.38505  -1.37925  -1.34879  -1.24653
 Alpha  occ. eigenvalues --   -1.19773  -1.16671  -1.12124  -1.10607  -1.07234
 Alpha  occ. eigenvalues --   -1.04695  -0.98771  -0.97876  -0.94819  -0.94400
 Alpha  occ. eigenvalues --   -0.90892  -0.87531  -0.87114  -0.84862  -0.84438
 Alpha  occ. eigenvalues --   -0.82416  -0.80944  -0.80432  -0.77079  -0.76568
 Alpha  occ. eigenvalues --   -0.73093  -0.71535  -0.70798  -0.70600  -0.69418
 Alpha  occ. eigenvalues --   -0.68518  -0.67636  -0.64394  -0.64146  -0.63797
 Alpha  occ. eigenvalues --   -0.62476  -0.60875  -0.60247  -0.59933  -0.58750
 Alpha  occ. eigenvalues --   -0.57343  -0.53675  -0.52031  -0.51211  -0.47162
 Alpha  occ. eigenvalues --   -0.41226  -0.39072
 Alpha virt. eigenvalues --   -0.08447  -0.06211  -0.04462  -0.04016  -0.03546
 Alpha virt. eigenvalues --   -0.03292  -0.03020  -0.02288  -0.01917  -0.01686
 Alpha virt. eigenvalues --   -0.01363  -0.00658  -0.00263  -0.00120   0.00438

 Mulliken charges:
               1
     1  C    0.615512
     2  H    0.043287
     3  H    0.058502
     4  H   -0.195701
     5  C    0.363368
     6  O   -0.912828
     7  N   -0.615827
     8  H   -0.047396
     9  C   -0.409384
    10  C    1.257608
    11  C   -0.028389
    12  C    0.547484
    13  H   -0.649599
    14  H   -0.489641
    15  H   -0.710911
    16  C    1.088216
    17  H   -0.740522
    18  C    2.134760
    19  C   -1.158843
    20  N   -0.568432
    21  C    0.629254
    22  H   -0.582337
    23  S    0.455371
    24  C    0.506162
    25  N   -0.694224
    26  C    1.364019
    27  N   -0.264125
    28  H   -0.006284
    29  H    0.027479
    30  N   -0.141618
    31  H    0.131918
    32  H    0.010482
    33  H   -0.017364
 Sum of Mulliken charges =   1.00000

 Dipole moment (field-independent basis, Debye):
    X=              9.1949    Y=              6.2002    Z=             -0.7329  Tot=             11.1142
 Quadrupole moment (field-independent basis, Debye-Ang):
   XX=            -14.7841   YY=            -68.1119   ZZ=           -123.8811
   XY=             26.8644   XZ=             -0.3200   YZ=             -3.3384

 Normal termination of Gaussian 16 at Sun Jul 18 19:59:27 2021.
