 Gaussian 16, Revision A.03,

 ---------------------------------------------------------------
 #p b3lyp/6-31G(d) opt freq scrf=(iefpcm,read,solvent=n-octanol)
 ---------------------------------------------------------------

 ---------------------------------------------
 SET_328_BBB256_conf1.geo_180_075_255 geometry
 ---------------------------------------------
 Symbolic Z-matrix:
 Charge =  1 Multiplicity = 1

 SCF Done:  E(RB3LYP) =  -422.027144756     A.U. after   12 cycles
 SCF Done:  E(RB3LYP) =  -422.041570094     A.U. after   11 cycles
 SCF Done:  E(RB3LYP) =  -422.040309487     A.U. after   13 cycles
 SCF Done:  E(RB3LYP) =  -422.045705359     A.U. after   11 cycles
 SCF Done:  E(RB3LYP) =  -422.046772129     A.U. after   11 cycles
 SCF Done:  E(RB3LYP) =  -422.047514919     A.U. after   13 cycles
 SCF Done:  E(RB3LYP) =  -422.047726603     A.U. after   13 cycles
 SCF Done:  E(RB3LYP) =  -422.048513392     A.U. after   11 cycles
 SCF Done:  E(RB3LYP) =  -422.049336759     A.U. after   11 cycles
 SCF Done:  E(RB3LYP) =  -422.050213342     A.U. after   13 cycles
 SCF Done:  E(RB3LYP) =  -422.052906770     A.U. after    9 cycles
 SCF Done:  E(RB3LYP) =  -422.052908070     A.U. after    9 cycles
 SCF Done:  E(RB3LYP) =  -422.052907354     A.U. after    8 cycles
 SCF Done:  E(RB3LYP) =  -422.052907270     A.U. after    7 cycles
 SCF Done:  E(RB3LYP) =  -422.052908288     A.U. after    9 cycles
 SCF Done:  E(RB3LYP) =  -422.052907416     A.U. after    9 cycles
 Optimization completed.
    -- Stationary point found.
 Normal termination of Gaussian 16 at Sun Jul 18 15:37:12 2021.

 --------------------------------------------------------------------
 #P Geom=AllCheck Guess=TCheck SCRF=Check GenChk RB3LYP/6-31G(d) Freq
 --------------------------------------------------------------------

 Structure from the checkpoint file:  "SET_328_BBB256_conf1.geo_180_075_255.chk"
 ---------------------------------------------
 SET_328_BBB256_conf1.geo_180_075_255 geometry
 ---------------------------------------------
 Charge =  1 Multiplicity = 1

 SCF Done:  E(RB3LYP) =  -422.052907416     A.U. after    1 cycles

  Exact polarizability: 140.435  -4.102 122.985 -10.138  -3.353  63.888
 Approx polarizability: 162.720  -3.991 159.183 -15.029  -5.863  80.944

                      1                      2                      3
                      A                      A                      A
 Frequencies --     41.7626               100.5707               161.3799
 Red. masses --      3.7421                 3.4488                 2.1098
 Frc consts  --      0.0038                 0.0206                 0.0324
 IR Inten    --      2.8873                12.3795                 6.1501

                      4                      5                      6
                      A                      A                      A
 Frequencies --    195.0211               250.0989               293.6641
 Red. masses --      1.8645                 1.8048                 2.8241
 Frc consts  --      0.0418                 0.0665                 0.1435
 IR Inten    --     15.9687                10.5357                35.3177

                      7                      8                      9
                      A                      A                      A
 Frequencies --    304.8947               331.2538               417.0318
 Red. masses --      2.0679                 2.6392                 3.4991
 Frc consts  --      0.1133                 0.1706                 0.3585
 IR Inten    --      1.3443                 5.2727                 5.5477

                     10                     11                     12
                      A                      A                      A
 Frequencies --    471.1839               510.5202               605.2318
 Red. masses --      2.3343                 3.8235                 2.9222
 Frc consts  --      0.3053                 0.5871                 0.6307
 IR Inten    --      3.6080                 1.6828                 2.8111

                     13                     14                     15
                      A                      A                      A
 Frequencies --    647.5559               759.4397               777.3576
 Red. masses --      6.7882                 4.0567                 1.3564
 Frc consts  --      1.6771                 1.3785                 0.4829
 IR Inten    --      8.8074                 1.5316                37.6202

                     16                     17                     18
                      A                      A                      A
 Frequencies --    798.9609               833.0377               882.3423
 Red. masses --      2.6642                 2.1986                 1.2366
 Frc consts  --      1.0020                 0.8989                 0.5672
 IR Inten    --     21.4792                 7.4080                32.5044

                     19                     20                     21
                      A                      A                      A
 Frequencies --    916.3170               968.1138               983.7151
 Red. masses --      1.2965                 1.7413                 1.3807
 Frc consts  --      0.6414                 0.9616                 0.7872
 IR Inten    --      0.4767                 6.9870                 0.0782

                     22                     23                     24
                      A                      A                      A
 Frequencies --   1000.8764              1024.6999              1025.2387
 Red. masses --      2.1652                 1.8090                 2.5714
 Frc consts  --      1.2779                 1.1191                 1.5925
 IR Inten    --      8.6806                11.7342                18.7973

                     25                     26                     27
                      A                      A                      A
 Frequencies --   1038.7079              1060.1236              1076.9953
 Red. masses --      2.9867                 2.1497                 2.2366
 Frc consts  --      1.8986                 1.4234                 1.5285
 IR Inten    --      4.2502                 3.2742                 5.0621

                     28                     29                     30
                      A                      A                      A
 Frequencies --   1124.6706              1158.9674              1182.5042
 Red. masses --      1.5216                 1.2673                 1.3793
 Frc consts  --      1.1340                 1.0030                 1.1363
 IR Inten    --     25.5526                 5.7636                14.3527

                     31                     32                     33
                      A                      A                      A
 Frequencies --   1189.4106              1240.5786              1265.7048
 Red. masses --      1.1181                 2.0432                 1.5619
 Frc consts  --      0.9319                 1.8527                 1.4743
 IR Inten    --      5.0336                 2.4805                 3.5124

                     34                     35                     36
                      A                      A                      A
 Frequencies --   1311.5549              1320.4213              1345.9300
 Red. masses --      3.0159                 1.7664                 1.3912
 Frc consts  --      3.0566                 1.8146                 1.4849
 IR Inten    --      2.5441                20.1605                13.8926

                     37                     38                     39
                      A                      A                      A
 Frequencies --   1393.8904              1405.7599              1445.8536
 Red. masses --      1.5541                 1.3114                 1.1184
 Frc consts  --      1.7790                 1.5269                 1.3776
 IR Inten    --      4.1191                13.8437                30.9877

                     40                     41                     42
                      A                      A                      A
 Frequencies --   1474.1555              1485.9332              1503.5287
 Red. masses --      1.2908                 1.5931                 1.1682
 Frc consts  --      1.6527                 2.0725                 1.5559
 IR Inten    --    115.2448                22.8899                31.0126

                     43                     44                     45
                      A                      A                      A
 Frequencies --   1506.8257              1522.6146              1526.4687
 Red. masses --      1.3229                 1.9094                 1.0460
 Frc consts  --      1.7697                 2.6081                 1.4360
 IR Inten    --    176.6274                23.6425                11.5771

                     46                     47                     48
                      A                      A                      A
 Frequencies --   1531.5944              1532.2440              1633.7219
 Red. masses --      1.0990                 1.0977                 5.8143
 Frc consts  --      1.5190                 1.5184                 9.1434
 IR Inten    --     56.2802                28.8512                23.3553

                     49                     50                     51
                      A                      A                      A
 Frequencies --   1657.5162              1679.1924              3055.0839
 Red. masses --      5.5141                 1.0631                 1.0772
 Frc consts  --      8.9256                 1.7662                 5.9237
 IR Inten    --     60.7255                66.2229               965.9779

                     52                     53                     54
                      A                      A                      A
 Frequencies --   3066.4066              3124.8273              3126.9580
 Red. masses --      1.0685                 1.0666                 1.0315
 Frc consts  --      5.9195                 6.1363                 5.9422
 IR Inten    --     14.2558                 5.1730                 7.9775

                     55                     56                     57
                      A                      A                      A
 Frequencies --   3135.3034              3186.4294              3207.8460
 Red. masses --      1.0877                 1.1088                 1.0904
 Frc consts  --      6.2995                 6.6332                 6.6107
 IR Inten    --     11.3107                 5.3319                18.5903

                     58                     59                     60
                      A                      A                      A
 Frequencies --   3219.9170              3220.2455              3224.8701
 Red. masses --      1.1070                 1.0904                 1.1088
 Frc consts  --      6.7622                 6.6624                 6.7941
 IR Inten    --      2.8650                 3.4773                 4.7738

                     61                     62                     63
                      A                      A                      A
 Frequencies --   3232.6096              3247.6290              3455.4675
 Red. masses --      1.0935                 1.0971                 1.0779
 Frc consts  --      6.7325                 6.8174                 7.5832
 IR Inten    --     14.5072                10.1965               151.3381

 - Thermochemistry -
 -------------------
 Temperature   298.150 Kelvin.  Pressure   1.00000 Atm.
 Atom     1 has atomic number  6 and mass  12.00000

 Molecular mass:   137.10787 amu.
 Principal axes and moments of inertia in atomic units:
                           1         2         3
     Eigenvalues --   624.151122306.690292806.27674
           X            0.99997   0.00703   0.00120
           Y           -0.00703   0.99997   0.00293
           Z           -0.00118  -0.00294   0.99999
 This molecule is an asymmetric top.
 Rotational symmetry number  1.
 Warning -- assumption of classical behavior for rotation
           may cause significant error
 Rotational temperatures (Kelvin)      0.13877     0.03755     0.03086
 Rotational constants (GHZ):           2.89151     0.78239     0.64311
 Zero-point vibrational energy     546805.4 (Joules/Mol)
                                  130.68964 (Kcal/Mol)
 Warning -- explicit consideration of  12 degrees of freedom as
           vibrations may cause significant error
 Vibrational temperatures:     60.09   144.70   232.19   280.59   359.84
          (Kelvin)            422.52   438.68   476.60   600.02   677.93
                              734.52   870.79   931.69  1092.66  1118.44
                             1149.53  1198.56  1269.49  1318.38  1392.90
                             1415.35  1440.04  1474.31  1475.09  1494.47
                             1525.28  1549.56  1618.15  1667.50  1701.36
                             1711.30  1784.92  1821.07  1887.03  1899.79
                             1936.49  2005.50  2022.58  2080.26  2120.98
                             2137.93  2163.24  2167.99  2190.70  2196.25
                             2203.62  2204.56  2350.56  2384.80  2415.98
                             4395.58  4411.88  4495.93  4499.00  4511.00
                             4584.56  4615.37  4632.74  4633.21  4639.87
                             4651.00  4672.61  4971.65

 Zero-point correction=                           0.208267 (Hartree/Particle)
 Thermal correction to Energy=                    0.217545
 Thermal correction to Enthalpy=                  0.218489
 Thermal correction to Gibbs Free Energy=         0.173350
 Sum of electronic and zero-point Energies=           -421.844640
 Sum of electronic and thermal Energies=              -421.835363
 Sum of electronic and thermal Enthalpies=            -421.834419
 Sum of electronic and thermal Free Energies=         -421.879558

                     E (Thermal)             CV                S
                      KCal/Mol        Cal/Mol-Kelvin    Cal/Mol-Kelvin
 Total                  136.511             35.468             95.004
 Electronic               0.000              0.000              0.000
 Translational            0.889              2.981             40.659
 Rotational               0.889              2.981             29.781
 Vibrational            134.734             29.506             24.564
 Vibration     1          0.594              1.980              5.174
 Vibration     2          0.604              1.949              3.443
 Vibration     3          0.622              1.890              2.534
 Vibration     4          0.636              1.847              2.180
 Vibration     5          0.663              1.763              1.730
 Vibration     6          0.688              1.686              1.453
 Vibration     7          0.696              1.664              1.390
 Vibration     8          0.714              1.613              1.254
 Vibration     9          0.780              1.433              0.902
 Vibration    10          0.828              1.314              0.734
 Vibration    11          0.866              1.227              0.632
 Vibration    12          0.964              1.021              0.441

 Optimization completed.
    -- Stationary point found.
 Normal termination of Gaussian 16 at Sun Jul 18 15:47:20 2021.

 ----------------------------------------------------------------------
 #p b3lyp/6-31G(d) scrf=(iefpcm,read,solvent=n-octanol) geom=allcheck g
 uess=read
 ----------------------------------------------------------------------

 Structure from the checkpoint file:  "SET_328_BBB256_conf1.geo_180_075_255.chk"
 ---------------------------------------------
 SET_328_BBB256_conf1.geo_180_075_255 geometry
 ---------------------------------------------
 Charge =  1 Multiplicity = 1

 SCF Done:  E(RB3LYP) =  -422.057556047     A.U. after    1 cycles
 Normal termination of Gaussian 16 at Sun Jul 18 15:47:45 2021.

 -----------------------------
 #p B3LYP/6-31G* geom=allcheck
 -----------------------------

 Structure from the checkpoint file:  "SET_328_BBB256_conf1.geo_180_075_255.chk"
 ---------------------------------------------
 SET_328_BBB256_conf1.geo_180_075_255 geometry
 ---------------------------------------------
 Charge =  1 Multiplicity = 1

 SCF Done:  E(RB3LYP) =  -421.971979355     A.U. after   14 cycles
 Normal termination of Gaussian 16 at Sun Jul 18 15:48:44 2021.
 Gaussian 16:  ES64L-G16RevA.03 25-Dec-2016

 --------------------------------------------------------
 #p mp2/aug-cc-pVDZ scf=tight maxdisk=180GB geom=allcheck
 --------------------------------------------------------

 Structure from the checkpoint file:  "SET_328_BBB256_conf1.geo_180_075_255.chk"
 ---------------------------------------------
 SET_328_BBB256_conf1.geo_180_075_255 geometry
 ---------------------------------------------
 Charge =  1 Multiplicity = 1

                         Standard orientation:
 ---------------------------------------------------------------------
 Center     Atomic      Atomic             Coordinates (Angstroms)
 Number     Number       Type             X           Y           Z
 ---------------------------------------------------------------------
      1          6           0       -3.405307   -1.005368   -0.386836
      2          1           0       -3.030364   -1.284268   -1.370043
      3          1           0       -4.265179   -0.344742   -0.486358
      4          1           0       -3.680318   -1.895408    0.175909
      5          7           0       -2.323073   -0.290620    0.350635
      6          1           0       -1.462499   -0.885623    0.440533
      7          6           0       -1.865566    0.981271   -0.319447
      8          1           0       -2.683579    1.698303   -0.252917
      9          1           0       -1.701198    0.730535   -1.368943
     10          6           0       -0.588440    1.529257    0.323207
     11          1           0       -0.762111    1.710514    1.392875
     12          1           0       -0.389157    2.507177   -0.120388
     13          6           0        0.623907    0.637071    0.144891
     14          7           0        0.425820   -0.685961    0.291527
     15          6           0        1.470359   -1.514949    0.164584
     16          1           0        1.258544   -2.572409    0.288150
     17          6           0        2.761057   -1.071046   -0.108351
     18          1           0        3.574930   -1.780168   -0.197813
     19          6           0        2.967638    0.298553   -0.267251
     20          1           0        3.955456    0.686038   -0.490216
     21          6           0        1.884445    1.165319   -0.142204
     22          1           0        2.008163    2.235552   -0.267296
     23          1           0       -2.630472   -0.090085    1.309809
 ---------------------------------------------------------------------

 SCF Done:  E(RHF) =  -419.269350981     A.U. after   15 cycles
 E2 =    -0.1461357841D+01 EUMP2 =    -0.42073070882155D+03

 The electronic state is 1-A.
 Alpha  occ. eigenvalues --  -15.84379 -15.71486 -11.45565 -11.44858 -11.42735
 Alpha  occ. eigenvalues --  -11.41318 -11.40088 -11.38929 -11.37244 -11.36812
 Alpha  occ. eigenvalues --   -1.47205  -1.40097  -1.22950  -1.21596  -1.15777
 Alpha  occ. eigenvalues --   -1.11111  -1.04561  -0.99342  -0.95905  -0.93505
 Alpha  occ. eigenvalues --   -0.84309  -0.83454  -0.82204  -0.79305  -0.78126
 Alpha  occ. eigenvalues --   -0.75664  -0.73419  -0.72902  -0.70970  -0.70426
 Alpha  occ. eigenvalues --   -0.69169  -0.67894  -0.65770  -0.64036  -0.56111
 Alpha  occ. eigenvalues --   -0.51212  -0.46929
 Alpha virt. eigenvalues --   -0.08207  -0.06271  -0.06153  -0.05358  -0.03907
 Alpha virt. eigenvalues --   -0.03621  -0.03502  -0.03321  -0.03068  -0.02012
 Alpha virt. eigenvalues --   -0.01754  -0.01496  -0.01016  -0.00252   0.00358

 Mulliken charges:
               1
     1  C    0.782805
     2  H   -0.092660
     3  H   -0.058606
     4  H   -0.120843
     5  N   -0.678800
     6  H    0.253640
     7  C    1.020779
     8  H   -0.217873
     9  H   -0.236755
    10  C    0.303010
    11  H    0.037275
    12  H    0.008284
    13  C   -0.086176
    14  N   -0.628289
    15  C    0.461752
    16  H   -0.415807
    17  C    0.834956
    18  H   -0.401563
    19  C   -0.160977
    20  H   -0.389531
    21  C    1.127395
    22  H   -0.558898
    23  H    0.216880
 Sum of Mulliken charges =   1.00000

 Dipole moment (field-independent basis, Debye):
    X=             -6.0052    Y=              0.0346    Z=              0.2799  Tot=              6.0119
 Quadrupole moment (field-independent basis, Debye-Ang):
   XX=            -17.6288   YY=            -46.8882   ZZ=            -58.5663
   XY=              1.9823   XZ=             -3.2043   YZ=             -0.4160

 Normal termination of Gaussian 16 at Sun Jul 18 15:56:13 2021.
