 Gaussian 16, Revision A.03,

 ---------------------------------------------------------------
 #p b3lyp/6-31G(d) opt freq scrf=(iefpcm,read,solvent=n-octanol)
 ---------------------------------------------------------------

 ---------------------------------------------
 SET_328_BBB321_conf1.geo_165_150_255 geometry
 ---------------------------------------------
 Symbolic Z-matrix:
 Charge =  1 Multiplicity = 1

 SCF Done:  E(RB3LYP) =  -1212.59295380     A.U. after   14 cycles
 SCF Done:  E(RB3LYP) =  -1212.69475189     A.U. after   12 cycles
 SCF Done:  E(RB3LYP) =  -1212.72548751     A.U. after   12 cycles
 SCF Done:  E(RB3LYP) =  -1212.77185372     A.U. after   12 cycles
 SCF Done:  E(RB3LYP) =  -1212.79284562     A.U. after   12 cycles
 SCF Done:  E(RB3LYP) =  -1212.80751330     A.U. after   14 cycles
 SCF Done:  E(RB3LYP) =  -1212.81156761     A.U. after   11 cycles
 SCF Done:  E(RB3LYP) =  -1212.81367240     A.U. after   12 cycles
 SCF Done:  E(RB3LYP) =  -1212.81549642     A.U. after   11 cycles
 SCF Done:  E(RB3LYP) =  -1212.81656433     A.U. after   11 cycles
 SCF Done:  E(RB3LYP) =  -1212.81944744     A.U. after    8 cycles
 SCF Done:  E(RB3LYP) =  -1212.81944626     A.U. after    8 cycles
 SCF Done:  E(RB3LYP) =  -1212.81944872     A.U. after    7 cycles
 SCF Done:  E(RB3LYP) =  -1212.81944910     A.U. after    7 cycles
 SCF Done:  E(RB3LYP) =  -1212.81944967     A.U. after    7 cycles
 SCF Done:  E(RB3LYP) =  -1212.81944990     A.U. after    6 cycles
 Optimization completed.
    -- Stationary point found.
 Normal termination of Gaussian 16 at Sun Jul 18 17:49:35 2021.

 --------------------------------------------------------------------
 #P Geom=AllCheck Guess=TCheck SCRF=Check GenChk RB3LYP/6-31G(d) Freq
 --------------------------------------------------------------------

 Structure from the checkpoint file:  "SET_328_BBB321_conf1.geo_165_150_255.chk"
 ---------------------------------------------
 SET_328_BBB321_conf1.geo_165_150_255 geometry
 ---------------------------------------------
 Charge =  1 Multiplicity = 1

 SCF Done:  E(RB3LYP) =  -1212.81944990     A.U. after    1 cycles

  Exact polarizability: 357.245   5.410 255.461  -1.948   4.192  84.516
 Approx polarizability: 385.854  18.562 352.102  -2.457   7.407 112.849

                      1                      2                      3
                      A                      A                      A
 Frequencies --     22.9092                40.6221                63.3434
 Red. masses --      4.3750                 8.2831                 1.4170
 Frc consts  --      0.0014                 0.0081                 0.0033
 IR Inten    --     13.8936                 7.0237                 2.4431

                      4                      5                      6
                      A                      A                      A
 Frequencies --     67.2986                72.7601                84.7895
 Red. masses --      4.5239                 5.4677                 6.5261
 Frc consts  --      0.0121                 0.0171                 0.0276
 IR Inten    --      6.9330                 1.6045                11.2729

                      7                      8                      9
                      A                      A                      A
 Frequencies --     99.3094               111.4268               133.2044
 Red. masses --      2.6349                 4.0164                 4.9930
 Frc consts  --      0.0153                 0.0294                 0.0522
 IR Inten    --      0.1286                 1.2509                 1.2152

                     10                     11                     12
                      A                      A                      A
 Frequencies --    196.9044               207.2873               241.9329
 Red. masses --      5.9234                 1.1728                 5.4538
 Frc consts  --      0.1353                 0.0297                 0.1881
 IR Inten    --     21.4280               289.4083                 8.3379

                     13                     14                     15
                      A                      A                      A
 Frequencies --    260.7942               266.0427               278.7493
 Red. masses --      5.1473                 4.0360                 4.4914
 Frc consts  --      0.2063                 0.1683                 0.2056
 IR Inten    --      6.5343                 2.0345                13.4090

                     16                     17                     18
                      A                      A                      A
 Frequencies --    321.8828               348.0494               356.7417
 Red. masses --      5.7260                 4.7170                 4.6657
 Frc consts  --      0.3495                 0.3367                 0.3498
 IR Inten    --     31.2601                 1.8184                 8.5601

                     19                     20                     21
                      A                      A                      A
 Frequencies --    363.8015               386.3928               413.9873
 Red. masses --      1.3600                 4.2001                 1.1030
 Frc consts  --      0.1061                 0.3695                 0.1114
 IR Inten    --     93.6537                 2.2068               263.0741

                     22                     23                     24
                      A                      A                      A
 Frequencies --    453.2876               488.6988               526.2767
 Red. masses --      3.3796                 4.9324                 2.3124
 Frc consts  --      0.4091                 0.6941                 0.3773
 IR Inten    --      2.0737                 0.9484                85.2190

                     25                     26                     27
                      A                      A                      A
 Frequencies --    536.2986               543.5050               559.3789
 Red. masses --      4.0093                 2.4211                 1.6765
 Frc consts  --      0.6794                 0.4214                 0.3091
 IR Inten    --     37.0618                 0.9658               164.1921

                     28                     29                     30
                      A                      A                      A
 Frequencies --    581.8810               603.1159               616.2396
 Red. masses --      1.7334                 3.0480                 7.9669
 Frc consts  --      0.3458                 0.6532                 1.7825
 IR Inten    --     20.5007                30.8718                 3.6493

                     31                     32                     33
                      A                      A                      A
 Frequencies --    636.5100               665.9320               675.1941
 Red. masses --      1.8709                 5.8396                 1.2779
 Frc consts  --      0.4466                 1.5258                 0.3433
 IR Inten    --     15.4487                 5.3613                20.3275

                     34                     35                     36
                      A                      A                      A
 Frequencies --    697.6614               700.9758               709.3363
 Red. masses --      3.1421                 1.8494                 3.9139
 Frc consts  --      0.9011                 0.5354                 1.1603
 IR Inten    --      0.1989                 1.9885                 3.1402

                     37                     38                     39
                      A                      A                      A
 Frequencies --    711.8438               746.1980               825.0811
 Red. masses --      4.6485                 2.0276                 3.5507
 Frc consts  --      1.3878                 0.6652                 1.4242
 IR Inten    --      4.5817                67.3588                36.4120

                     40                     41                     42
                      A                      A                      A
 Frequencies --    827.9487               864.2927               877.0225
 Red. masses --      1.7114                 5.7619                 2.2912
 Frc consts  --      0.6912                 2.5359                 1.0384
 IR Inten    --     21.1106                 9.7114                33.0053

                     43                     44                     45
                      A                      A                      A
 Frequencies --    885.0802               935.0865               950.5389
 Red. masses --      2.7513                 1.3522                 5.1269
 Frc consts  --      1.2698                 0.6966                 2.7293
 IR Inten    --     20.0074                 0.6789                 2.5427

                     46                     47                     48
                      A                      A                      A
 Frequencies --   1001.8090              1006.4046              1010.7471
 Red. masses --      1.2708                 4.3442                 4.8883
 Frc consts  --      0.7515                 2.5924                 2.9423
 IR Inten    --      2.1009                 3.5205                11.9775

                     49                     50                     51
                      A                      A                      A
 Frequencies --   1017.5428              1037.6695              1069.2485
 Red. masses --      4.7857                 1.7026                 1.6714
 Frc consts  --      2.9195                 1.0801                 1.1259
 IR Inten    --      2.1435                30.2029                12.8836

                     52                     53                     54
                      A                      A                      A
 Frequencies --   1083.5205              1100.7448              1119.4218
 Red. masses --      1.4273                 1.7087                 1.5657
 Frc consts  --      0.9873                 1.2198                 1.1559
 IR Inten    --      9.0914                15.4835                23.6599

                     55                     56                     57
                      A                      A                      A
 Frequencies --   1130.6806              1194.0840              1217.7475
 Red. masses --      1.6889                 1.1207                 1.6521
 Frc consts  --      1.2722                 0.9415                 1.4434
 IR Inten    --     10.3033                 2.5634                15.3030

                     58                     59                     60
                      A                      A                      A
 Frequencies --   1238.3201              1265.8004              1287.9541
 Red. masses --      2.5022                 3.1376                 2.2197
 Frc consts  --      2.2607                 2.9619                 2.1694
 IR Inten    --    207.9351               105.3022                66.7641

                     61                     62                     63
                      A                      A                      A
 Frequencies --   1328.6042              1350.4296              1370.1392
 Red. masses --      2.2658                 2.7163                 5.2880
 Frc consts  --      2.3564                 2.9186                 5.8489
 IR Inten    --     20.4616               198.5059               139.5771

                     64                     65                     66
                      A                      A                      A
 Frequencies --   1427.6073              1458.1143              1486.8862
 Red. masses --      1.2399                 2.9738                 1.8049
 Frc consts  --      1.4889                 3.7252                 2.3510
 IR Inten    --     33.9319                36.2478                12.9660

                     67                     68                     69
                      A                      A                      A
 Frequencies --   1499.3364              1511.8414              1519.4721
 Red. masses --      1.0448                 1.1446                 2.5986
 Frc consts  --      1.3838                 1.5414                 3.5349
 IR Inten    --      9.2112                31.4466               323.0929

                     70                     71                     72
                      A                      A                      A
 Frequencies --   1540.4412              1563.9739              1590.7456
 Red. masses --      1.7989                 3.5559                 2.5239
 Frc consts  --      2.5150                 5.1246                 3.7628
 IR Inten    --    342.8751               246.0948               432.6712

                     73                     74                     75
                      A                      A                      A
 Frequencies --   1597.1425              1616.4482              1645.7497
 Red. masses --      3.8064                 1.7633                 4.8672
 Frc consts  --      5.7207                 2.7146                 7.7670
 IR Inten    --      9.4255               592.2705                 5.5982

                     76                     77                     78
                      A                      A                      A
 Frequencies --   1649.7417              1664.6097              1718.1281
 Red. masses --      1.5218                 5.6329                 4.0997
 Frc consts  --      2.4403                 9.1962                 7.1305
 IR Inten    --    688.3166               142.5758               894.4303

                     79                     80                     81
                      A                      A                      A
 Frequencies --   1770.7699              3086.8123              3158.9493
 Red. masses --      8.0323                 1.0354                 1.1013
 Frc consts  --     14.8393                 5.8129                 6.4748
 IR Inten    --    331.1351                 7.8873                 6.6869

                     82                     83                     84
                      A                      A                      A
 Frequencies --   3168.4047              3194.3215              3211.2339
 Red. masses --      1.1051                 1.0897                 1.0893
 Frc consts  --      6.5363                 6.5510                 6.6181
 IR Inten    --     21.6535                16.5895                22.7130

                     85                     86                     87
                      A                      A                      A
 Frequencies --   3245.5168              3285.6105              3309.3561
 Red. masses --      1.0919                 1.0920                 1.0944
 Frc consts  --      6.7765                 6.9455                 7.0619
 IR Inten    --      9.8876                11.3330                 7.3525

                     88                     89                     90
                      A                      A                      A
 Frequencies --   3478.3833              3563.8939              3573.0561
 Red. masses --      1.0550                 1.0548                 1.0714
 Frc consts  --      7.5209                 7.8935                 8.0587
 IR Inten    --    423.1951               157.5675               381.7511

                     91                     92                     93
                      A                      A                      A
 Frequencies --   3622.5576              3639.4951              3675.6186
 Red. masses --      1.0774                 1.1002                 1.1083
 Frc consts  --      8.3303                 8.5863                 8.8217
 IR Inten    --     50.5116               406.2370               226.7404

 - Thermochemistry -
 -------------------
 Temperature   298.150 Kelvin.  Pressure   1.00000 Atm.
 Atom     1 has atomic number  6 and mass  12.00000

 Molecular mass:   276.09191 amu.
 Principal axes and moments of inertia in atomic units:
                           1         2         3
     Eigenvalues --  1999.87874********************
           X            0.99989  -0.01499  -0.00064
           Y            0.01499   0.99988   0.00416
           Z            0.00057  -0.00417   0.99999
 This molecule is an asymmetric top.
 Rotational symmetry number  1.
 Warning -- assumption of classical behavior for rotation
           may cause significant error
 Rotational temperatures (Kelvin)      0.04331     0.00623     0.00548
 Rotational constants (GHZ):           0.90243     0.12982     0.11424
 Zero-point vibrational energy     683430.8 (Joules/Mol)
                                  163.34387 (Kcal/Mol)
 Warning -- explicit consideration of  30 degrees of freedom as
           vibrations may cause significant error
 Vibrational temperatures:     32.96    58.45    91.14    96.83   104.69
          (Kelvin)            121.99   142.88   160.32   191.65   283.30
                              298.24   348.09   375.22   382.78   401.06
                              463.12   500.77   513.27   523.43   555.93
                              595.64   652.18   703.13   757.19   771.61
                              781.98   804.82   837.20   867.75   886.63
                              915.80   958.13   971.45  1003.78  1008.55
                             1020.58  1024.18  1073.61  1187.11  1191.23
                             1243.52  1261.84  1273.43  1345.38  1367.61
                             1441.38  1447.99  1454.24  1464.02  1492.98
                             1538.41  1558.94  1583.73  1610.60  1626.80
                             1718.02  1752.07  1781.67  1821.20  1853.08
                             1911.57  1942.97  1971.32  2054.01  2097.90
                             2139.30  2157.21  2175.20  2186.18  2216.35
                             2250.21  2288.73  2297.93  2325.71  2367.87
                             2373.61  2395.00  2472.00  2547.74  4441.23
                             4545.02  4558.63  4595.92  4620.25  4669.57
                             4727.26  4761.43  5004.62  5127.65  5140.83
                             5212.05  5236.42  5288.40

 Zero-point correction=                           0.260305 (Hartree/Particle)
 Thermal correction to Energy=                    0.278793
 Thermal correction to Enthalpy=                  0.279737
 Thermal correction to Gibbs Free Energy=         0.212208
 Sum of electronic and zero-point Energies=          -1212.559145
 Sum of electronic and thermal Energies=             -1212.540657
 Sum of electronic and thermal Enthalpies=           -1212.539713
 Sum of electronic and thermal Free Energies=        -1212.607241

                     E (Thermal)             CV                S
                      KCal/Mol        Cal/Mol-Kelvin    Cal/Mol-Kelvin
 Total                  174.945             69.763            142.126
 Electronic               0.000              0.000              0.000
 Translational            0.889              2.981             42.745
 Rotational               0.889              2.981             34.440
 Vibrational            173.168             63.801             64.941
 Vibration     1          0.593              1.985              6.365
 Vibration     2          0.594              1.981              5.229
 Vibration     3          0.597              1.972              4.350
 Vibration     4          0.598              1.970              4.231
 Vibration     5          0.599              1.967              4.077
 Vibration     6          0.601              1.960              3.777
 Vibration     7          0.604              1.950              3.468
 Vibration     8          0.607              1.940              3.244
 Vibration     9          0.613              1.920              2.899
 Vibration    10          0.636              1.844              2.162
 Vibration    11          0.641              1.829              2.067
 Vibration    12          0.658              1.776              1.789
 Vibration    13          0.669              1.744              1.656
 Vibration    14          0.672              1.735              1.622
 Vibration    15          0.679              1.713              1.541
 Vibration    16          0.707              1.632              1.301
 Vibration    17          0.726              1.579              1.175
 Vibration    18          0.732              1.561              1.136
 Vibration    19          0.737              1.547              1.106
 Vibration    20          0.755              1.499              1.014
 Vibration    21          0.778              1.440              0.913
 Vibration    22          0.812              1.354              0.786
 Vibration    23          0.845              1.275              0.687
 Vibration    24          0.881              1.192              0.596
 Vibration    25          0.891              1.170              0.573
 Vibration    26          0.899              1.154              0.558
 Vibration    27          0.915              1.119              0.525
 Vibration    28          0.939              1.071              0.482
 Vibration    29          0.962              1.025              0.444
 Vibration    30          0.976              0.998              0.423

                           ! Non-Optimized Parameters !
 Normal termination of Gaussian 16 at Sun Jul 18 18:23:42 2021.

 ----------------------------------------------------------------------
 #p b3lyp/6-31G(d) scrf=(iefpcm,read,solvent=n-octanol) geom=allcheck g
 uess=read
 ----------------------------------------------------------------------

 Structure from the checkpoint file:  "SET_328_BBB321_conf1.geo_165_150_255.chk"
 ---------------------------------------------
 SET_328_BBB321_conf1.geo_165_150_255 geometry
 ---------------------------------------------
 Charge =  1 Multiplicity = 1

 SCF Done:  E(RB3LYP) =  -1212.81944990     A.U. after    1 cycles
 Normal termination of Gaussian 16 at Sun Jul 18 18:24:56 2021.

 -----------------------------
 #p B3LYP/6-31G* geom=allcheck
 -----------------------------

 Structure from the checkpoint file:  "SET_328_BBB321_conf1.geo_165_150_255.chk"
 ---------------------------------------------
 SET_328_BBB321_conf1.geo_165_150_255 geometry
 ---------------------------------------------
 Charge =  1 Multiplicity = 1

 SCF Done:  E(RB3LYP) =  -1212.69429117     A.U. after   16 cycles
 Normal termination of Gaussian 16 at Sun Jul 18 18:27:49 2021.
 Gaussian 16:  ES64L-G16RevA.03 25-Dec-2016

 --------------------------------------------------------
 #p mp2/aug-cc-pVDZ scf=tight maxdisk=180GB geom=allcheck
 --------------------------------------------------------

 Structure from the checkpoint file:  "SET_328_BBB321_conf1.geo_165_150_255.chk"
 ---------------------------------------------
 SET_328_BBB321_conf1.geo_165_150_255 geometry
 ---------------------------------------------
 Charge =  1 Multiplicity = 1

                         Standard orientation:
 ---------------------------------------------------------------------
 Center     Atomic      Atomic             Coordinates (Angstroms)
 Number     Number       Type             X           Y           Z
 ---------------------------------------------------------------------
      1          6           0       -6.458826    1.140522    0.378621
      2          1           0       -6.045603    2.136971    0.544921
      3          1           0       -7.074046    0.862959    1.237593
      4          1           0       -7.113097    1.170334   -0.496175
      5          6           0       -5.412062    0.064872    0.164506
      6          8           0       -5.724423   -1.109688    0.001656
      7          7           0       -4.114734    0.519388    0.165396
      8          1           0       -3.989373    1.512678    0.311456
      9          6           0       -2.926141   -0.213502   -0.014564
     10          6           0       -2.908030   -1.601805   -0.225686
     11          6           0       -1.683550   -2.245914   -0.390636
     12          6           0       -0.481557   -1.544209   -0.353440
     13          1           0        0.463566   -2.052607   -0.494477
     14          1           0       -1.671938   -3.318407   -0.554310
     15          1           0       -3.842926   -2.139928   -0.253311
     16          6           0       -1.719275    0.495333    0.028533
     17          1           0       -1.737286    1.566166    0.211257
     18          6           0       -0.492650   -0.157194   -0.144697
     19          6           0        0.771175    0.599237   -0.121807
     20          7           0        1.974705   -0.090624   -0.042585
     21          6           0        0.904987    1.958462   -0.193451
     22          1           0        0.136821    2.708548   -0.293479
     23         16           0        2.576584    2.425438   -0.149416
     24          6           0        2.988901    0.721904   -0.049831
     25          7           0        4.318027    0.332967    0.023727
     26          6           0        4.787772   -0.937671    0.209201
     27          7           0        3.955483   -1.958138    0.336161
     28          1           0        2.952107   -1.794556    0.285034
     29          1           0        4.319023   -2.892247    0.489040
     30          7           0        6.106094   -1.101145    0.257378
     31          1           0        6.502662   -2.025272    0.383460
     32          1           0        6.736978   -0.311993    0.176985
     33          1           0        5.031671    1.050508   -0.071588
 ---------------------------------------------------------------------

 SCF Done:  E(RHF) =  -1207.15589535     A.U. after   18 cycles
 E2 =    -0.2815803928D+01 EUMP2 =    -0.12099716992759D+04

 The electronic state is 1-A.
 Alpha  occ. eigenvalues --  -92.13546 -20.60455 -15.81612 -15.80126 -15.78723
 Alpha  occ. eigenvalues --  -15.72079 -15.69056 -11.60774 -11.51490 -11.44027
 Alpha  occ. eigenvalues --  -11.41364 -11.39186 -11.38305 -11.35571 -11.33770
 Alpha  occ. eigenvalues --  -11.33157 -11.33036 -11.31887 -11.31264  -9.13712
 Alpha  occ. eigenvalues --   -6.81875  -6.81768  -6.81574  -1.55223  -1.45913
 Alpha  occ. eigenvalues --   -1.45532  -1.39616  -1.38877  -1.33872  -1.24564
 Alpha  occ. eigenvalues --   -1.20513  -1.16909  -1.11706  -1.10840  -1.06381
 Alpha  occ. eigenvalues --   -1.05334  -0.99626  -0.98816  -0.95292  -0.93769
 Alpha  occ. eigenvalues --   -0.91177  -0.89140  -0.86643  -0.85737  -0.84394
 Alpha  occ. eigenvalues --   -0.82923  -0.81957  -0.81104  -0.76747  -0.75297
 Alpha  occ. eigenvalues --   -0.72367  -0.72258  -0.70888  -0.70004  -0.69337
 Alpha  occ. eigenvalues --   -0.68307  -0.65991  -0.64404  -0.63906  -0.63274
 Alpha  occ. eigenvalues --   -0.62360  -0.61505  -0.61383  -0.59001  -0.58125
 Alpha  occ. eigenvalues --   -0.57958  -0.53231  -0.51902  -0.49486  -0.47548
 Alpha  occ. eigenvalues --   -0.41017  -0.39018
 Alpha virt. eigenvalues --   -0.09156  -0.07086  -0.05424  -0.04896  -0.04401
 Alpha virt. eigenvalues --   -0.03808  -0.03383  -0.02772  -0.02362  -0.01925
 Alpha virt. eigenvalues --   -0.01411  -0.00348  -0.00074   0.00411   0.00577

 Mulliken charges:
               1
     1  C    0.513927
     2  H   -0.210784
     3  H    0.051080
     4  H    0.059521
     5  C    0.492260
     6  O   -0.859320
     7  N   -0.556021
     8  H   -0.025959
     9  C   -0.264851
    10  C    1.141127
    11  C   -0.085464
    12  C    0.689557
    13  H   -0.644701
    14  H   -0.513395
    15  H   -0.647248
    16  C    1.032128
    17  H   -0.774381
    18  C    1.684563
    19  C   -0.575255
    20  N   -0.670433
    21  C    0.417003
    22  H   -0.567173
    23  S    0.489747
    24  C    0.442674
    25  N   -0.698452
    26  C    1.368548
    27  N   -0.175670
    28  H    0.126876
    29  H    0.007535
    30  N   -0.262140
    31  H    0.027793
    32  H   -0.000474
    33  H   -0.012618
 Sum of Mulliken charges =   1.00000

 Dipole moment (field-independent basis, Debye):
    X=             20.0126    Y=              0.8191    Z=              1.2932  Tot=             20.0711
 Quadrupole moment (field-independent basis, Debye-Ang):
   XX=             15.2622   YY=            -88.2437   ZZ=           -123.4563
   XY=            -40.5013   XZ=              1.9785   YZ=             -1.6150

 Normal termination of Gaussian 16 at Sun Jul 18 19:44:26 2021.
