 Gaussian 16, Revision A.03,

 ---------------------------------------------------------------
 #p b3lyp/6-31G(d) opt freq scrf=(iefpcm,read,solvent=n-octanol)
 ---------------------------------------------------------------

 ---------------------------------------------
 SET_328_BBB301_conf1.geo_075_090_045 geometry
 ---------------------------------------------
 Symbolic Z-matrix:
 Charge =  1 Multiplicity = 1

 SCF Done:  E(RB3LYP) =  -788.824976476     A.U. after   12 cycles
 SCF Done:  E(RB3LYP) =  -788.871066125     A.U. after   11 cycles
 SCF Done:  E(RB3LYP) =  -788.879609006     A.U. after   13 cycles
 SCF Done:  E(RB3LYP) =  -788.901300808     A.U. after   11 cycles
 SCF Done:  E(RB3LYP) =  -788.905808975     A.U. after   11 cycles
 SCF Done:  E(RB3LYP) =  -788.907668451     A.U. after   11 cycles
 SCF Done:  E(RB3LYP) =  -788.909958992     A.U. after   11 cycles
 SCF Done:  E(RB3LYP) =  -788.910803012     A.U. after   10 cycles
 SCF Done:  E(RB3LYP) =  -788.912345511     A.U. after   11 cycles
 SCF Done:  E(RB3LYP) =  -788.913089883     A.U. after   10 cycles
 SCF Done:  E(RB3LYP) =  -788.914965118     A.U. after    8 cycles
 SCF Done:  E(RB3LYP) =  -788.914958529     A.U. after    8 cycles
 SCF Done:  E(RB3LYP) =  -788.914965024     A.U. after    8 cycles
 SCF Done:  E(RB3LYP) =  -788.914959125     A.U. after    8 cycles
 SCF Done:  E(RB3LYP) =  -788.914965140     A.U. after    8 cycles
 SCF Done:  E(RB3LYP) =  -788.914958895     A.U. after    8 cycles
 Optimization completed on the basis of negligible forces.
    -- Stationary point found.
 Normal termination of Gaussian 16 at Sun Jul 18 17:13:54 2021.

 --------------------------------------------------------------------
 #P Geom=AllCheck Guess=TCheck SCRF=Check GenChk RB3LYP/6-31G(d) Freq
 --------------------------------------------------------------------

 Structure from the checkpoint file:  "SET_328_BBB301_conf1.geo_075_090_045.chk"
 ---------------------------------------------
 SET_328_BBB301_conf1.geo_075_090_045 geometry
 ---------------------------------------------
 Charge =  1 Multiplicity = 1

 SCF Done:  E(RB3LYP) =  -788.914958895     A.U. after    1 cycles

  Exact polarizability: 212.613 -14.418 188.778 -19.850 -17.068 143.196
 Approx polarizability: 249.198 -20.650 232.037 -31.476 -25.043 179.726

                      1                      2                      3
                      A                      A                      A
 Frequencies --     24.9666                43.1649                77.5957
 Red. masses --      4.4350                 3.7348                 2.6758
 Frc consts  --      0.0016                 0.0041                 0.0095
 IR Inten    --      2.1368                 0.9055                 0.2852

                      4                      5                      6
                      A                      A                      A
 Frequencies --     89.7832               133.6399               153.3953
 Red. masses --      3.9452                 4.3866                 2.8178
 Frc consts  --      0.0187                 0.0462                 0.0391
 IR Inten    --      1.9385                 6.7594                 4.3946

                      7                      8                      9
                      A                      A                      A
 Frequencies --    179.6372               187.0608               204.2215
 Red. masses --      3.6639                 4.1378                 2.3858
 Frc consts  --      0.0697                 0.0853                 0.0586
 IR Inten    --     14.4164                18.3483                 7.4401

                     10                     11                     12
                      A                      A                      A
 Frequencies --    218.7740               259.0580               290.6606
 Red. masses --      3.7291                 1.3766                 1.2270
 Frc consts  --      0.1052                 0.0544                 0.0611
 IR Inten    --      7.1115                 3.1719                 0.9086

                     13                     14                     15
                      A                      A                      A
 Frequencies --    300.7596               302.5644               319.4004
 Red. masses --      4.1673                 1.0473                 4.1225
 Frc consts  --      0.2221                 0.0565                 0.2478
 IR Inten    --      4.4722                 0.3726                 2.5801

                     16                     17                     18
                      A                      A                      A
 Frequencies --    333.2368               357.4630               360.8375
 Red. masses --      4.4193                 2.2415                 2.1085
 Frc consts  --      0.2891                 0.1687                 0.1618
 IR Inten    --      1.9684                 3.2318                63.5378

                     19                     20                     21
                      A                      A                      A
 Frequencies --    386.0894               404.6661               413.4600
 Red. masses --      1.9545                 1.8262                 2.0780
 Frc consts  --      0.1717                 0.1762                 0.2093
 IR Inten    --      0.8815                64.0800               131.7240

                     22                     23                     24
                      A                      A                      A
 Frequencies --    449.5589               454.8534               458.9085
 Red. masses --      2.6532                 1.7897                 2.1980
 Frc consts  --      0.3159                 0.2182                 0.2727
 IR Inten    --      9.4779               112.6269                46.3510

                     25                     26                     27
                      A                      A                      A
 Frequencies --    471.3834               479.0325               492.4453
 Red. masses --      2.7933                 2.3764                 2.4447
 Frc consts  --      0.3657                 0.3213                 0.3493
 IR Inten    --     38.4017                 3.3504                 1.9584

                     28                     29                     30
                      A                      A                      A
 Frequencies --    553.9749               575.0258               644.5311
 Red. masses --      3.6374                 4.1821                 4.7057
 Frc consts  --      0.6577                 0.8147                 1.1518
 IR Inten    --      3.4787                 9.3861                15.9550

                     31                     32                     33
                      A                      A                      A
 Frequencies --    682.7810               707.3504               747.4560
 Red. masses --      4.7750                 4.1255                 3.9120
 Frc consts  --      1.3116                 1.2162                 1.2877
 IR Inten    --      2.9796                12.4787                13.3483

                     34                     35                     36
                      A                      A                      A
 Frequencies --    780.7138               798.4174               805.3423
 Red. masses --      3.9279                 1.7149                 1.6074
 Frc consts  --      1.4106                 0.6441                 0.6142
 IR Inten    --     17.1560               132.5224                36.5246

                     37                     38                     39
                      A                      A                      A
 Frequencies --    849.7292               862.7043               872.2167
 Red. masses --      1.2952                 1.5000                 1.8948
 Frc consts  --      0.5510                 0.6578                 0.8493
 IR Inten    --      8.0781                16.8049                18.4543

                     40                     41                     42
                      A                      A                      A
 Frequencies --    884.9418               903.0706               946.0978
 Red. masses --      1.8789                 4.0655                 2.0989
 Frc consts  --      0.8669                 1.9535                 1.1069
 IR Inten    --     16.0310                 7.1114                 4.4012

                     43                     44                     45
                      A                      A                      A
 Frequencies --    947.3631               960.1948               976.0494
 Red. masses --      1.6582                 1.6572                 1.5528
 Frc consts  --      0.8768                 0.9002                 0.8716
 IR Inten    --      0.8509                 0.4027                46.4674

                     46                     47                     48
                      A                      A                      A
 Frequencies --    984.7854               987.8084              1004.0463
 Red. masses --      1.3385                 1.2991                 2.3157
 Frc consts  --      0.7648                 0.7469                 1.3754
 IR Inten    --      4.1887                10.7311                53.8658

                     49                     50                     51
                      A                      A                      A
 Frequencies --   1038.5151              1050.6384              1081.2977
 Red. masses --      4.1589                 2.3234                 1.5428
 Frc consts  --      2.6427                 1.5111                 1.0628
 IR Inten    --     41.7602                24.0783                36.4090

                     52                     53                     54
                      A                      A                      A
 Frequencies --   1088.9308              1115.5151              1152.4380
 Red. masses --      2.2203                 1.9192                 1.8875
 Frc consts  --      1.5512                 1.4071                 1.4769
 IR Inten    --     52.1874                32.3993                49.1620

                     55                     56                     57
                      A                      A                      A
 Frequencies --   1178.1980              1204.1992              1218.1215
 Red. masses --      1.5250                 1.1310                 1.8291
 Frc consts  --      1.2473                 0.9663                 1.5991
 IR Inten    --     10.5994                28.5010               122.2271

                     58                     59                     60
                      A                      A                      A
 Frequencies --   1223.8802              1250.0540              1263.8311
 Red. masses --      1.6842                 1.7200                 1.4975
 Frc consts  --      1.4863                 1.5836                 1.4093
 IR Inten    --      5.2280                16.5373                36.6539

                     61                     62                     63
                      A                      A                      A
 Frequencies --   1267.6527              1300.3539              1315.7210
 Red. masses --      1.9443                 1.6359                 2.8632
 Frc consts  --      1.8408                 1.6298                 2.9203
 IR Inten    --     68.6299               105.0571               117.5881

                     64                     65                     66
                      A                      A                      A
 Frequencies --   1332.9481              1345.8795              1359.0755
 Red. masses --      1.9197                 3.0191                 1.6163
 Frc consts  --      2.0096                 3.2221                 1.7590
 IR Inten    --      0.5445                41.5171                19.2029

                     67                     68                     69
                      A                      A                      A
 Frequencies --   1377.3259              1401.9389              1413.2186
 Red. masses --      1.5367                 1.3150                 1.2247
 Frc consts  --      1.7176                 1.5228                 1.4411
 IR Inten    --     65.9798                43.8397               220.3148

                     70                     71                     72
                      A                      A                      A
 Frequencies --   1414.2684              1439.4055              1442.5135
 Red. masses --      1.2348                 1.3789                 1.7134
 Frc consts  --      1.4552                 1.6832                 2.1006
 IR Inten    --      9.9665                64.8738                62.2254

                     73                     74                     75
                      A                      A                      A
 Frequencies --   1448.1039              1458.4718              1467.3678
 Red. masses --      1.2593                 1.1454                 1.1923
 Frc consts  --      1.5559                 1.4355                 1.5126
 IR Inten    --     28.1151                 9.4206                43.2606

                     76                     77                     78
                      A                      A                      A
 Frequencies --   1498.6203              1504.9360              1513.8006
 Red. masses --      2.2726                 1.0513                 1.1637
 Frc consts  --      3.0072                 1.4028                 1.5711
 IR Inten    --     18.0823                 4.7439                41.4131

                     79                     80                     81
                      A                      A                      A
 Frequencies --   1519.5079              1520.4813              1523.3656
 Red. masses --      1.0513                 1.1153                 1.0713
 Frc consts  --      1.4302                 1.5192                 1.4648
 IR Inten    --      3.2182                 3.8295                34.4522

                     82                     83                     84
                      A                      A                      A
 Frequencies --   1528.7076              1546.1992              1549.8424
 Red. masses --      1.0607                 1.0787                 1.1142
 Frc consts  --      1.4604                 1.5194                 1.5769
 IR Inten    --     14.2244                53.4071                10.0813

                     85                     86                     87
                      A                      A                      A
 Frequencies --   1553.2017              1577.7953              1649.0051
 Red. masses --      2.6001                 1.0854                 4.6249
 Frc consts  --      3.6957                 1.5920                 7.4096
 IR Inten    --    150.3911                18.7370                66.8826

                     88                     89                     90
                      A                      A                      A
 Frequencies --   1683.3411              1697.3832              3071.1233
 Red. masses --      4.8131                 1.1042                 1.0847
 Frc consts  --      8.0356                 1.8743                 6.0279
 IR Inten    --     43.1776                93.7820                24.7151

                     91                     92                     93
                      A                      A                      A
 Frequencies --   3074.7049              3080.7746              3091.5574
 Red. masses --      1.0583                 1.0379                 1.0357
 Frc consts  --      5.8950                 5.8039                 5.8325
 IR Inten    --     53.4675                13.3577                11.6724

                     94                     95                     96
                      A                      A                      A
 Frequencies --   3097.8774              3119.0753              3150.1037
 Red. masses --      1.0368                 1.1083                 1.0985
 Frc consts  --      5.8624                 6.3525                 6.4224
 IR Inten    --      3.6008                26.2544                13.6191

                     97                     98                     99
                      A                      A                      A
 Frequencies --   3158.8996              3161.9362              3164.4429
 Red. masses --      1.0736                 1.1018                 1.1020
 Frc consts  --      6.3119                 6.4901                 6.5014
 IR Inten    --      1.7922                11.3731                 1.8976

                    100                    101                    102
                      A                      A                      A
 Frequencies --   3168.6661              3170.9409              3174.1827
 Red. masses --      1.0990                 1.1015                 1.0879
 Frc consts  --      6.5016                 6.5253                 6.4583
 IR Inten    --     18.8786                 9.7440                53.4709

                    103                    104                    105
                      A                      A                      A
 Frequencies --   3175.5720              3212.0078              3221.7394
 Red. masses --      1.0960                 1.0874                 1.1083
 Frc consts  --      6.5116                 6.6100                 6.7776
 IR Inten    --     22.4465                 5.9504                 6.5943

                    106                    107                    108
                      A                      A                      A
 Frequencies --   3226.2446              3430.6976              3445.0655
 Red. masses --      1.0945                 1.0540                 1.0661
 Frc consts  --      6.7121                 7.3087                 7.4550
 IR Inten    --     12.5829                73.8209               589.6977

                    109                    110                    111
                      A                      A                      A
 Frequencies --   3479.3210              3714.8167              3728.4138
 Red. masses --      1.0919                 1.0661                 1.0664
 Frc consts  --      7.7883                 8.6682                 8.7342
 IR Inten    --    109.8344                42.0214                64.9998

 - Thermochemistry -
 -------------------
 Temperature   298.150 Kelvin.  Pressure   1.00000 Atm.
 Atom     1 has atomic number  6 and mass  12.00000

 Molecular mass:   240.15997 amu.
 Principal axes and moments of inertia in atomic units:
                           1         2         3
     Eigenvalues --  2536.313417702.944149204.56802
           X            0.99993   0.01092   0.00378
           Y           -0.01090   0.99992  -0.00667
           Z           -0.00385   0.00663   0.99997
 This molecule is an asymmetric top.
 Rotational symmetry number  1.
 Warning -- assumption of classical behavior for rotation
           may cause significant error
 Rotational temperatures (Kelvin)      0.03415     0.01124     0.00941
 Rotational constants (GHZ):           0.71156     0.23429     0.19607
 Zero-point vibrational energy     916072.9 (Joules/Mol)
                                  218.94668 (Kcal/Mol)
 Warning -- explicit consideration of  29 degrees of freedom as
           vibrations may cause significant error
 Vibrational temperatures:     35.92    62.10   111.64   129.18   192.28
          (Kelvin)            220.70   258.46   269.14   293.83   314.77
                              372.73   418.20   432.73   435.32   459.55
                              479.45   514.31   519.16   555.50   582.22
                              594.88   646.81   654.43   660.27   678.22
                              689.22   708.52   797.05   827.33   927.34
                              982.37  1017.72  1075.42  1123.27  1148.74
                             1158.71  1222.57  1241.24  1254.93  1273.23
                             1299.32  1361.22  1363.04  1381.51  1404.32
                             1416.89  1421.24  1444.60  1494.19  1511.63
                             1555.75  1566.73  1604.98  1658.10  1695.16
                             1732.57  1752.61  1760.89  1798.55  1818.37
                             1823.87  1870.92  1893.03  1917.82  1936.42
                             1955.41  1981.66  2017.08  2033.31  2034.82
                             2070.98  2075.46  2083.50  2098.42  2111.22
                             2156.18  2165.27  2178.02  2186.23  2187.63
                             2191.78  2199.47  2224.64  2229.88  2234.71
                             2270.10  2372.55  2421.95  2442.16  4418.66
                             4423.81  4432.55  4448.06  4457.15  4487.65
                             4532.30  4544.95  4549.32  4552.93  4559.00
                             4562.28  4566.94  4568.94  4621.36  4635.36
                             4641.85  4936.01  4956.68  5005.97  5344.79
                             5364.36

 Zero-point correction=                           0.348914 (Hartree/Particle)
 Thermal correction to Energy=                    0.366305
 Thermal correction to Enthalpy=                  0.367249
 Thermal correction to Gibbs Free Energy=         0.304262
 Sum of electronic and zero-point Energies=           -788.566045
 Sum of electronic and thermal Energies=              -788.548654
 Sum of electronic and thermal Enthalpies=            -788.547710
 Sum of electronic and thermal Free Energies=         -788.610697

                     E (Thermal)             CV                S
                      KCal/Mol        Cal/Mol-Kelvin    Cal/Mol-Kelvin
 Total                  229.860             69.066            132.569
 Electronic               0.000              0.000              0.000
 Translational            0.889              2.981             42.330
 Rotational               0.889              2.981             33.552
 Vibrational            228.082             63.104             56.687
 Vibration     1          0.593              1.985              6.194
 Vibration     2          0.595              1.980              5.108
 Vibration     3          0.599              1.964              3.951
 Vibration     4          0.602              1.956              3.665
 Vibration     5          0.613              1.920              2.893
 Vibration     6          0.619              1.899              2.630
 Vibration     7          0.629              1.867              2.332
 Vibration     8          0.632              1.858              2.257
 Vibration     9          0.640              1.834              2.095
 Vibration    10          0.647              1.812              1.969
 Vibration    11          0.668              1.747              1.668
 Vibration    12          0.687              1.691              1.470
 Vibration    13          0.693              1.672              1.413
 Vibration    14          0.694              1.669              1.403
 Vibration    15          0.705              1.636              1.313
 Vibration    16          0.715              1.609              1.244
 Vibration    17          0.733              1.560              1.133
 Vibration    18          0.735              1.553              1.118
 Vibration    19          0.755              1.500              1.015
 Vibration    20          0.770              1.460              0.946
 Vibration    21          0.777              1.441              0.914
 Vibration    22          0.808              1.362              0.797
 Vibration    23          0.813              1.350              0.781
 Vibration    24          0.817              1.341              0.769
 Vibration    25          0.828              1.314              0.734
 Vibration    26          0.835              1.297              0.713
 Vibration    27          0.848              1.267              0.677
 Vibration    28          0.909              1.131              0.536
 Vibration    29          0.931              1.085              0.495

 Optimization completed.
    -- Stationary point found.
 Normal termination of Gaussian 16 at Sun Jul 18 17:51:49 2021.

 ----------------------------------------------------------------------
 #p b3lyp/6-31G(d) scrf=(iefpcm,read,solvent=n-octanol) geom=allcheck g
 uess=read
 ----------------------------------------------------------------------

 Structure from the checkpoint file:  "SET_328_BBB301_conf1.geo_075_090_045.chk"
 ---------------------------------------------
 SET_328_BBB301_conf1.geo_075_090_045 geometry
 ---------------------------------------------
 Charge =  1 Multiplicity = 1

 SCF Done:  E(RB3LYP) =  -788.917093113     A.U. after    1 cycles
 Normal termination of Gaussian 16 at Sun Jul 18 17:52:43 2021.

 -----------------------------
 #p B3LYP/6-31G* geom=allcheck
 -----------------------------

 Structure from the checkpoint file:  "SET_328_BBB301_conf1.geo_075_090_045.chk"
 ---------------------------------------------
 SET_328_BBB301_conf1.geo_075_090_045 geometry
 ---------------------------------------------
 Charge =  1 Multiplicity = 1

 SCF Done:  E(RB3LYP) =  -788.814845518     A.U. after   14 cycles
 Normal termination of Gaussian 16 at Sun Jul 18 17:55:08 2021.
 Gaussian 16:  ES64L-G16RevA.03 25-Dec-2016

 --------------------------------------------------------
 #p mp2/aug-cc-pVDZ scf=tight maxdisk=180GB geom=allcheck
 --------------------------------------------------------

 Structure from the checkpoint file:  "SET_328_BBB301_conf1.geo_075_090_045.chk"
 ---------------------------------------------
 SET_328_BBB301_conf1.geo_075_090_045 geometry
 ---------------------------------------------
 Charge =  1 Multiplicity = 1

                         Standard orientation:
 ---------------------------------------------------------------------
 Center     Atomic      Atomic             Coordinates (Angstroms)
 Number     Number       Type             X           Y           Z
 ---------------------------------------------------------------------
      1          6           0        3.670686    1.251031    1.776917
      2          1           0        3.967440    0.389385    2.380934
      3          1           0        2.794202    1.718044    2.235034
      4          1           0        4.486692    1.975197    1.814493
      5          6           0        3.415264    0.867532    0.314902
      6          6           0        3.008714    2.094117   -0.505087
      7          1           0        2.830273    1.853446   -1.555987
      8          1           0        3.823354    2.819609   -0.472551
      9          1           0        2.118317    2.582053   -0.097807
     10          6           0        4.630165    0.159243   -0.287463
     11          1           0        5.495105    0.819375   -0.208069
     12          1           0        4.493689   -0.072899   -1.345161
     13          1           0        4.869613   -0.765377    0.246119
     14          7           0        2.232626   -0.131143    0.326602
     15          1           0        1.433743    0.314355    0.795843
     16          6           0        1.789859   -0.684897   -0.997478
     17          1           0        2.662478   -1.153953   -1.445750
     18          1           0        1.475836    0.148324   -1.622252
     19          6           0        0.682509   -1.739231   -0.845872
     20          8           0        1.163932   -2.811939   -0.043673
     21          1           0        0.896878   -2.657411    0.879155
     22          1           0        0.570438   -2.166535   -1.848159
     23          6           0       -0.667602   -1.211689   -0.382574
     24          6           0       -1.145567    0.050457   -0.756717
     25          1           0       -0.537663    0.712905   -1.368188
     26          6           0       -2.415372    0.496573   -0.392900
     27          6           0       -2.945699    1.817548   -0.895138
     28          8           0       -3.746102    2.508161    0.079435
     29          1           0       -3.163822    2.790883    0.805050
     30          1           0       -3.623138    1.662645   -1.740070
     31          1           0       -2.125355    2.451854   -1.243456
     32          6           0       -3.234414   -0.337838    0.393796
     33          8           0       -4.468409    0.050204    0.796151
     34          1           0       -4.533718    1.019453    0.629593
     35          6           0       -2.776521   -1.606019    0.762508
     36          1           0       -3.425317   -2.243404    1.353765
     37          6           0       -1.516491   -2.038308    0.365669
     38          1           0       -1.192579   -3.038605    0.632723
     39          1           0        2.486602   -0.923858    0.929854
 ---------------------------------------------------------------------

 SCF Done:  E(RHF) =  -784.023352250     A.U. after   15 cycles
 E2 =    -0.2638684250D+01 EUMP2 =    -0.78666203650014D+03

 The electronic state is 1-A.
 Alpha  occ. eigenvalues --  -20.71860 -20.69651 -20.68197 -15.85153 -11.46735
 Alpha  occ. eigenvalues --  -11.44803 -11.44677 -11.41927 -11.40863 -11.38551
 Alpha  occ. eigenvalues --  -11.38512 -11.38187 -11.37429 -11.36958 -11.36401
 Alpha  occ. eigenvalues --  -11.36088 -11.34676  -1.51972  -1.50685  -1.47867
 Alpha  occ. eigenvalues --   -1.47293  -1.27831  -1.25264  -1.18556  -1.16146
 Alpha  occ. eigenvalues --   -1.12614  -1.10746  -1.10054  -1.04319  -1.01576
 Alpha  occ. eigenvalues --   -0.95651  -0.95115  -0.93282  -0.91957  -0.85360
 Alpha  occ. eigenvalues --   -0.84708  -0.83104  -0.82435  -0.80200  -0.77756
 Alpha  occ. eigenvalues --   -0.77359  -0.76448  -0.75478  -0.74363  -0.73649
 Alpha  occ. eigenvalues --   -0.72697  -0.71941  -0.70912  -0.69674  -0.69433
 Alpha  occ. eigenvalues --   -0.69163  -0.68388  -0.67746  -0.67512  -0.66336
 Alpha  occ. eigenvalues --   -0.64626  -0.64438  -0.63969  -0.62561  -0.61263
 Alpha  occ. eigenvalues --   -0.60454  -0.58220  -0.56375  -0.45808  -0.42276
 Alpha virt. eigenvalues --   -0.07854  -0.06393  -0.06006  -0.04990  -0.04122
 Alpha virt. eigenvalues --   -0.03872  -0.03559  -0.03133  -0.02921  -0.02516
 Alpha virt. eigenvalues --   -0.02119  -0.01353  -0.01163  -0.00997  -0.00690

 Mulliken charges:
               1
     1  C    1.363526
     2  H    0.010169
     3  H    0.000090
     4  H    0.027523
     5  C   -3.452553
     6  C    1.251915
     7  H   -0.021177
     8  H   -0.030675
     9  H   -0.000092
    10  C    1.301646
    11  H   -0.008031
    12  H   -0.015949
    13  H   -0.007169
    14  N   -0.525278
    15  H    0.189136
    16  C    1.091264
    17  H   -0.212803
    18  H   -0.236352
    19  C    0.716593
    20  O   -0.792178
    21  H    0.157498
    22  H   -0.138209
    23  C    0.617001
    24  C    0.955801
    25  H   -0.788773
    26  C   -0.670090
    27  C    1.289373
    28  O   -0.765244
    29  H    0.189463
    30  H   -0.047575
    31  H   -0.181608
    32  C    0.351807
    33  O   -0.954079
    34  H    0.240810
    35  C    0.591930
    36  H   -0.522090
    37  C    0.554838
    38  H   -0.736996
    39  H    0.206536
 Sum of Mulliken charges =   1.00000

 Dipole moment (field-independent basis, Debye):
    X=             10.4543    Y=              2.8708    Z=              0.8068  Tot=             10.8713
 Quadrupole moment (field-independent basis, Debye-Ang):
   XX=            -70.5101   YY=            -92.9924   ZZ=            -92.4715
   XY=              5.8707   XZ=              4.4179   YZ=             -1.7059

 Normal termination of Gaussian 16 at Sun Jul 18 19:08:53 2021.
