 Gaussian 16, Revision A.03,

 ---------------------------------------------------------------
 #p b3lyp/6-31G(d) opt freq scrf=(iefpcm,read,solvent=n-octanol)
 ---------------------------------------------------------------

 --------------------------------------------
 SET_328_BBB29_conf1.geo_285_180_300 geometry
 --------------------------------------------
 Symbolic Z-matrix:
 Charge =  1 Multiplicity = 1

 SCF Done:  E(RB3LYP) =  -1548.93394112     A.U. after   13 cycles
 SCF Done:  E(RB3LYP) =  -1548.97152654     A.U. after   12 cycles
 SCF Done:  E(RB3LYP) =  -1548.97179823     A.U. after   12 cycles
 SCF Done:  E(RB3LYP) =  -1548.99291319     A.U. after   12 cycles
 SCF Done:  E(RB3LYP) =  -1548.99413049     A.U. after   11 cycles
 SCF Done:  E(RB3LYP) =  -1548.99488467     A.U. after   11 cycles
 SCF Done:  E(RB3LYP) =  -1548.99579635     A.U. after   11 cycles
 SCF Done:  E(RB3LYP) =  -1548.99390885     A.U. after   13 cycles
 SCF Done:  E(RB3LYP) =  -1548.99619596     A.U. after   11 cycles
 SCF Done:  E(RB3LYP) =  -1548.99701731     A.U. after   11 cycles
 SCF Done:  E(RB3LYP) =  -1548.99887543     A.U. after    8 cycles
 SCF Done:  E(RB3LYP) =  -1548.99885183     A.U. after    8 cycles
 SCF Done:  E(RB3LYP) =  -1548.99887509     A.U. after    8 cycles
 SCF Done:  E(RB3LYP) =  -1548.99885170     A.U. after    8 cycles
 SCF Done:  E(RB3LYP) =  -1548.99887487     A.U. after    8 cycles
 SCF Done:  E(RB3LYP) =  -1548.99885172     A.U. after    8 cycles
 Optimization completed on the basis of negligible forces.
    -- Stationary point found.
 Normal termination of Gaussian 16 at Sun Jul 18 16:04:37 2021.

 --------------------------------------------------------------------
 #P Geom=AllCheck Guess=TCheck SCRF=Check GenChk RB3LYP/6-31G(d) Freq
 --------------------------------------------------------------------

 Structure from the checkpoint file:  "SET_328_BBB29_conf1.geo_285_180_300.chk"
 --------------------------------------------
 SET_328_BBB29_conf1.geo_285_180_300 geometry
 --------------------------------------------
 Charge =  1 Multiplicity = 1

 SCF Done:  E(RB3LYP) =  -1548.99885172     A.U. after    1 cycles

  Exact polarizability: 360.321 -12.390 270.987  -6.153   8.740 114.895
 Approx polarizability: 421.778  -9.485 347.623  -5.666  11.717 154.361

                      1                      2                      3
                      A                      A                      A
 Frequencies --     41.2153                55.1893                73.3703
 Red. masses --      7.4699                 4.2508                 4.5259
 Frc consts  --      0.0075                 0.0076                 0.0144
 IR Inten    --      4.6861                17.2549                 9.1886

                      4                      5                      6
                      A                      A                      A
 Frequencies --     87.1384               121.6886               134.3338
 Red. masses --      5.9899                 2.0686                 2.9814
 Frc consts  --      0.0268                 0.0180                 0.0317
 IR Inten    --      2.3400                13.9855                 4.1128

                      7                      8                      9
                      A                      A                      A
 Frequencies --    162.6494               189.1161               215.8319
 Red. masses --      7.0527                 3.6780                 4.6868
 Frc consts  --      0.1099                 0.0775                 0.1286
 IR Inten    --      3.6273                14.4325                 2.3367

                     10                     11                     12
                      A                      A                      A
 Frequencies --    229.8244               266.2165               289.2713
 Red. masses --      4.4849                 3.3094                 7.5317
 Frc consts  --      0.1396                 0.1382                 0.3713
 IR Inten    --      1.4565                 2.9281                 0.7469

                     13                     14                     15
                      A                      A                      A
 Frequencies --    294.5850               334.4400               348.7419
 Red. masses --      5.6443                 5.1624                 1.5546
 Frc consts  --      0.2886                 0.3402                 0.1114
 IR Inten    --      5.5156                 3.0915                 2.5608

                     16                     17                     18
                      A                      A                      A
 Frequencies --    372.8170               395.8739               416.9862
 Red. masses --      4.5104                 7.0292                 2.9551
 Frc consts  --      0.3694                 0.6490                 0.3027
 IR Inten    --      1.2956                 8.1901                 5.8166

                     19                     20                     21
                      A                      A                      A
 Frequencies --    437.2262               455.3761               463.6906
 Red. masses --      5.0366                 4.2882                 3.2334
 Frc consts  --      0.5673                 0.5239                 0.4096
 IR Inten    --      1.9753                 3.9805                 1.2896

                     22                     23                     24
                      A                      A                      A
 Frequencies --    486.7660               496.6119               547.5551
 Red. masses --      3.0351                 4.8664                 4.2964
 Frc consts  --      0.4237                 0.7071                 0.7589
 IR Inten    --      1.9583                 9.7782                 2.9940

                     25                     26                     27
                      A                      A                      A
 Frequencies --    561.1406               590.7365               626.0149
 Red. masses --      5.9378                 5.7735                 5.9537
 Frc consts  --      1.1016                 1.1871                 1.3747
 IR Inten    --     10.1357                 3.7966                 0.5885

                     28                     29                     30
                      A                      A                      A
 Frequencies --    658.6664               692.8210               715.0742
 Red. masses --      5.0060                 5.7593                 5.1130
 Frc consts  --      1.2796                 1.6288                 1.5404
 IR Inten    --     13.7487                 5.2004                 3.3793

                     31                     32                     33
                      A                      A                      A
 Frequencies --    729.4280               740.4896               766.4406
 Red. masses --      5.2012                 4.4711                 1.2643
 Frc consts  --      1.6305                 1.4444                 0.4376
 IR Inten    --      1.5078                 2.8419                67.1356

                     34                     35                     36
                      A                      A                      A
 Frequencies --    782.4555               814.9986               820.4317
 Red. masses --      1.6128                 1.4044                 2.5434
 Frc consts  --      0.5818                 0.5496                 1.0087
 IR Inten    --      6.9573                30.4059                29.7934

                     37                     38                     39
                      A                      A                      A
 Frequencies --    837.5772               861.0671               872.0661
 Red. masses --      1.6612                 1.4563                 1.3288
 Frc consts  --      0.6866                 0.6362                 0.5954
 IR Inten    --     20.0511                24.3226                 0.1723

                     40                     41                     42
                      A                      A                      A
 Frequencies --    883.6555               935.6935               944.7193
 Red. masses --      2.2820                 2.6000                 1.4275
 Frc consts  --      1.0499                 1.3412                 0.7506
 IR Inten    --     24.6701               104.9108                23.1521

                     43                     44                     45
                      A                      A                      A
 Frequencies --    947.7418               983.4579               997.1037
 Red. masses --      1.2988                 1.2538                 1.6645
 Frc consts  --      0.6873                 0.7145                 0.9750
 IR Inten    --      0.5959                 0.0845                 0.6014

                     46                     47                     48
                      A                      A                      A
 Frequencies --   1022.0311              1062.8003              1073.8601
 Red. masses --      1.8294                 3.9204                 6.0284
 Frc consts  --      1.1259                 2.6091                 4.0959
 IR Inten    --     22.8383                24.7290                29.7300

                     49                     50                     51
                      A                      A                      A
 Frequencies --   1079.6581              1089.2211              1130.1405
 Red. masses --      3.5111                 2.5379                 3.3827
 Frc consts  --      2.4114                 1.7740                 2.5455
 IR Inten    --      8.1100                 9.9734                22.6774

                     52                     53                     54
                      A                      A                      A
 Frequencies --   1143.9217              1155.2947              1159.7346
 Red. masses --      2.0209                 1.5605                 1.5424
 Frc consts  --      1.5581                 1.2272                 1.2223
 IR Inten    --     81.0377                19.1806                41.8247

                     55                     56                     57
                      A                      A                      A
 Frequencies --   1174.7168              1197.4413              1207.7028
 Red. masses --      1.4315                 1.7463                 1.2098
 Frc consts  --      1.1639                 1.4753                 1.0396
 IR Inten    --      3.5308                18.2989                 3.4329

                     58                     59                     60
                      A                      A                      A
 Frequencies --   1271.9690              1286.9246              1298.1273
 Red. masses --      1.9968                 2.2466                 1.5037
 Frc consts  --      1.9034                 2.1922                 1.4930
 IR Inten    --    191.3721               111.7362                12.0851

                     61                     62                     63
                      A                      A                      A
 Frequencies --   1327.4823              1337.7230              1343.3715
 Red. masses --      1.6135                 7.1814                 1.3200
 Frc consts  --      1.6753                 7.5716                 1.4035
 IR Inten    --     15.5852                60.3390                43.4954

                     64                     65                     66
                      A                      A                      A
 Frequencies --   1354.0875              1357.0301              1388.1443
 Red. masses --      2.2459                 2.5967                 1.3249
 Frc consts  --      2.4262                 2.8174                 1.5042
 IR Inten    --     28.3909                10.5583                30.0291

                     67                     68                     69
                      A                      A                      A
 Frequencies --   1407.2211              1430.2327              1453.1084
 Red. masses --      1.5746                 1.3470                 2.5226
 Frc consts  --      1.8371                 1.6234                 3.1383
 IR Inten    --     21.0590                25.5461               100.0774

                     70                     71                     72
                      A                      A                      A
 Frequencies --   1477.1740              1494.2796              1511.8967
 Red. masses --      1.4621                 1.7877                 1.0974
 Frc consts  --      1.8797                 2.3519                 1.4780
 IR Inten    --     50.9943                23.9942                37.3370

                     73                     74                     75
                      A                      A                      A
 Frequencies --   1513.5857              1535.9314              1545.1628
 Red. masses --      2.2963                 1.4356                 1.5305
 Frc consts  --      3.0996                 1.9954                 2.1530
 IR Inten    --    432.1734                 5.2269               104.0689

                     76                     77                     78
                      A                      A                      A
 Frequencies --   1556.6383              1589.5570              1614.1495
 Red. masses --      1.1574                 1.1197                 6.1142
 Frc consts  --      1.6524                 1.6668                 9.3860
 IR Inten    --     56.0983                89.7511                39.7106

                     79                     80                     81
                      A                      A                      A
 Frequencies --   1627.8810              1636.9206              1638.9579
 Red. masses --      6.2700                 3.4378                 1.1888
 Frc consts  --      9.7895                 5.4273                 1.8815
 IR Inten    --     99.2852                 6.8295                95.0855

                     82                     83                     84
                      A                      A                      A
 Frequencies --   1655.5393              1716.7918              3087.7122
 Red. masses --      6.1319                 1.0443                 1.0609
 Frc consts  --      9.9021                 1.8135                 5.9593
 IR Inten    --     48.1866               100.1171                37.5514

                     85                     86                     87
                      A                      A                      A
 Frequencies --   3114.3642              3125.6989              3131.4804
 Red. masses --      1.0623                 1.0683                 1.0988
 Frc consts  --      6.0708                 6.1496                 6.3487
 IR Inten    --     14.6135                14.2243                 3.9996

                     88                     89                     90
                      A                      A                      A
 Frequencies --   3156.1403              3186.7226              3211.1588
 Red. masses --      1.1019                 1.1070                 1.0874
 Frc consts  --      6.4668                 6.6235                 6.6065
 IR Inten    --     25.8213                10.0257                 2.5865

                     91                     92                     93
                      A                      A                      A
 Frequencies --   3216.2820              3223.6760              3238.1339
 Red. masses --      1.0903                 1.0897                 1.0954
 Frc consts  --      6.6449                 6.6723                 6.7675
 IR Inten    --     13.6848                 5.3745                32.8957

                     94                     95                     96
                      A                      A                      A
 Frequencies --   3253.3959              3259.8957              3285.6775
 Red. masses --      1.0941                 1.0903                 1.0885
 Frc consts  --      6.8229                 6.8265                 6.9236
 IR Inten    --      2.8782                18.8703                 3.8595

                     97                     98                     99
                      A                      A                      A
 Frequencies --   3413.4795              3477.7536              3498.4770
 Red. masses --      1.0352                 1.0908                 1.0925
 Frc consts  --      7.1065                 7.7731                 7.8785
 IR Inten    --    117.5273               191.3612               178.2651

 - Thermochemistry -
 -------------------
 Temperature   298.150 Kelvin.  Pressure   1.00000 Atm.
 Atom     1 has atomic number  7 and mass  14.00307

 Molecular mass:   291.07227 amu.
 Principal axes and moments of inertia in atomic units:
                           1         2         3
     Eigenvalues --  4933.432977197.04390**********
           X            0.99976   0.02060  -0.00753
           Y           -0.02064   0.99977  -0.00592
           Z            0.00741   0.00608   0.99995
 This molecule is an asymmetric top.
 Rotational symmetry number  1.
 Warning -- assumption of classical behavior for rotation
           may cause significant error
 Rotational temperatures (Kelvin)      0.01756     0.01203     0.00743
 Rotational constants (GHZ):           0.36582     0.25076     0.15485
 Zero-point vibrational energy     762169.3 (Joules/Mol)
                                  182.16283 (Kcal/Mol)
 Warning -- explicit consideration of  26 degrees of freedom as
           vibrations may cause significant error
 Vibrational temperatures:     59.30    79.41   105.56   125.37   175.08
          (Kelvin)            193.28   234.02   272.10   310.53   330.67
                              383.03   416.20   423.84   481.18   501.76
                              536.40   569.57   599.95   629.07   655.18
                              667.15   700.35   714.51   787.81   807.36
                              849.94   900.70   947.67   996.81  1028.83
                             1049.48  1065.40  1102.74  1125.78  1172.60
                             1180.42  1205.09  1238.88  1254.71  1271.38
                             1346.25  1359.24  1363.59  1414.98  1434.61
                             1470.47  1529.13  1545.05  1553.39  1567.15
                             1626.02  1645.85  1662.21  1668.60  1690.16
                             1722.85  1737.61  1830.08  1851.60  1867.72
                             1909.95  1924.69  1932.81  1948.23  1952.46
                             1997.23  2024.68  2057.79  2090.70  2125.32
                             2149.94  2175.28  2177.71  2209.86  2223.14
                             2239.66  2287.02  2322.40  2342.16  2355.16
                             2358.09  2381.95  2470.08  4442.53  4480.88
                             4497.18  4505.50  4540.98  4584.98  4620.14
                             4627.51  4638.15  4658.95  4680.91  4690.26
                             4727.36  4911.24  5003.71  5033.53

 Zero-point correction=                           0.290295 (Hartree/Particle)
 Thermal correction to Energy=                    0.306682
 Thermal correction to Enthalpy=                  0.307626
 Thermal correction to Gibbs Free Energy=         0.246014
 Sum of electronic and zero-point Energies=          -1548.708557
 Sum of electronic and thermal Energies=             -1548.692170
 Sum of electronic and thermal Enthalpies=           -1548.691225
 Sum of electronic and thermal Free Energies=        -1548.752838

                     E (Thermal)             CV                S
                      KCal/Mol        Cal/Mol-Kelvin    Cal/Mol-Kelvin
 Total                  192.446             65.182            129.674
 Electronic               0.000              0.000              0.000
 Translational            0.889              2.981             42.903
 Rotational               0.889              2.981             34.380
 Vibrational            190.668             59.221             52.390
 Vibration     1          0.594              1.981              5.200
 Vibration     2          0.596              1.975              4.622
 Vibration     3          0.599              1.967              4.061
 Vibration     4          0.601              1.958              3.723
 Vibration     5          0.609              1.931              3.073
 Vibration     6          0.613              1.919              2.883
 Vibration     7          0.623              1.888              2.519
 Vibration     8          0.633              1.855              2.236
 Vibration     9          0.645              1.817              1.994
 Vibration    10          0.652              1.795              1.880
 Vibration    11          0.672              1.735              1.621
 Vibration    12          0.686              1.694              1.478
 Vibration    13          0.689              1.684              1.447
 Vibration    14          0.716              1.607              1.239
 Vibration    15          0.726              1.578              1.172
 Vibration    16          0.744              1.528              1.068
 Vibration    17          0.763              1.479              0.978
 Vibration    18          0.780              1.433              0.902
 Vibration    19          0.798              1.389              0.835
 Vibration    20          0.814              1.349              0.780
 Vibration    21          0.821              1.331              0.755
 Vibration    22          0.843              1.279              0.692
 Vibration    23          0.852              1.258              0.667
 Vibration    24          0.903              1.145              0.549
 Vibration    25          0.917              1.115              0.522
 Vibration    26          0.948              1.052              0.466

 Optimization completed.
    -- Stationary point found.
 Normal termination of Gaussian 16 at Sun Jul 18 16:47:11 2021.

 ----------------------------------------------------------------------
 #p b3lyp/6-31G(d) scrf=(iefpcm,read,solvent=n-octanol) geom=allcheck g
 uess=read
 ----------------------------------------------------------------------

 Structure from the checkpoint file:  "SET_328_BBB29_conf1.geo_285_180_300.chk"
 --------------------------------------------
 SET_328_BBB29_conf1.geo_285_180_300 geometry
 --------------------------------------------
 Charge =  1 Multiplicity = 1

 SCF Done:  E(RB3LYP) =  -1549.00168816     A.U. after    2 cycles
 Normal termination of Gaussian 16 at Sun Jul 18 16:48:25 2021.

 -----------------------------
 #p B3LYP/6-31G* geom=allcheck
 -----------------------------

 Structure from the checkpoint file:  "SET_328_BBB29_conf1.geo_285_180_300.chk"
 --------------------------------------------
 SET_328_BBB29_conf1.geo_285_180_300 geometry
 --------------------------------------------
 Charge =  1 Multiplicity = 1

 SCF Done:  E(RB3LYP) =  -1548.86795622     A.U. after   15 cycles
 Normal termination of Gaussian 16 at Sun Jul 18 16:51:12 2021.
 Gaussian 16:  ES64L-G16RevA.03 25-Dec-2016

 --------------------------------------------------------
 #p mp2/aug-cc-pVDZ scf=tight maxdisk=180GB geom=allcheck
 --------------------------------------------------------

 Structure from the checkpoint file:  "SET_328_BBB29_conf1.geo_285_180_300.chk"
 --------------------------------------------
 SET_328_BBB29_conf1.geo_285_180_300 geometry
 --------------------------------------------
 Charge =  1 Multiplicity = 1

                         Standard orientation:
 ---------------------------------------------------------------------
 Center     Atomic      Atomic             Coordinates (Angstroms)
 Number     Number       Type             X           Y           Z
 ---------------------------------------------------------------------
      1          7           0        1.477109    4.515340   -0.668672
      2          1           0        2.372273    4.129898   -0.339798
      3          1           0        1.593098    5.537616   -0.699132
      4          6           0        0.325805    4.129333    0.225112
      5          1           0       -0.577199    4.496592   -0.265806
      6          1           0        0.462664    4.688799    1.149143
      7          6           0        0.246827    2.637441    0.521286
      8          1           0       -0.542364    2.520009    1.265991
      9          1           0        1.167340    2.309033    1.010943
     10          6           0       -0.077591    1.756851   -0.704552
     11          1           0        0.782733    1.695122   -1.374118
     12          1           0       -0.892173    2.212284   -1.273988
     13          7           0       -0.478592    0.382762   -0.407674
     14          6           0        0.523574   -0.585804   -0.197663
     15          6           0        1.858978   -0.213140    0.020700
     16          1           0        2.149060    0.825732    0.050289
     17          6           0        2.840748   -1.183964    0.205193
     18         17           0        4.498637   -0.658257    0.456184
     19          6           0        2.543805   -2.538847    0.214794
     20          1           0        3.317224   -3.278671    0.373408
     21          6           0        1.215949   -2.912628    0.009866
     22          1           0        0.948873   -3.963525    0.002023
     23          6           0        0.222747   -1.963826   -0.220677
     24         16           0       -1.393429   -2.524005   -0.691346
     25          6           0       -2.361281   -1.165779   -0.079000
     26          6           0       -1.831332    0.138783   -0.061834
     27          6           0       -2.696170    1.186784    0.287393
     28          1           0       -2.333930    2.204453    0.316047
     29          6           0       -4.033645    0.947898    0.603810
     30          1           0       -4.672404    1.786953    0.857877
     31          6           0       -4.536482   -0.348799    0.610544
     32          1           0       -5.570842   -0.542370    0.867759
     33          6           0       -3.687871   -1.404919    0.277779
     34          1           0       -4.056226   -2.425448    0.267752
     35          1           0        1.355910    4.214950   -1.644065
 ---------------------------------------------------------------------

 SCF Done:  E(RHF) =  -1543.11226458     A.U. after   19 cycles
 E2 =    -0.2704500115D+01 EUMP2 =    -0.15458167646996D+04

 The electronic state is 1-A.
 Alpha  occ. eigenvalues -- -104.92812 -92.05688 -15.90560 -15.71614 -11.48730
 Alpha  occ. eigenvalues --  -11.42199 -11.40754 -11.40616 -11.40420 -11.39798
 Alpha  occ. eigenvalues --  -11.36980 -11.36595 -11.35327 -11.34869 -11.34306
 Alpha  occ. eigenvalues --  -11.33896 -11.33893 -11.33885 -11.32822 -10.65376
 Alpha  occ. eigenvalues --   -9.05871  -8.12155  -8.11827  -8.11810  -6.74074
 Alpha  occ. eigenvalues --   -6.73928  -6.73708  -1.51471  -1.40204  -1.28339
 Alpha  occ. eigenvalues --   -1.25757  -1.23720  -1.21652  -1.16042  -1.13862
 Alpha  occ. eigenvalues --   -1.12372  -1.10200  -1.08708  -1.02032  -1.00133
 Alpha  occ. eigenvalues --   -0.97145  -0.95787  -0.95479  -0.92921  -0.92169
 Alpha  occ. eigenvalues --   -0.86642  -0.85641  -0.82870  -0.80787  -0.79133
 Alpha  occ. eigenvalues --   -0.76298  -0.75624  -0.75071  -0.74102  -0.72660
 Alpha  occ. eigenvalues --   -0.72202  -0.70674  -0.69223  -0.68631  -0.67001
 Alpha  occ. eigenvalues --   -0.65919  -0.65290  -0.63861  -0.62561  -0.62268
 Alpha  occ. eigenvalues --   -0.60842  -0.58618  -0.57310  -0.55255  -0.54529
 Alpha  occ. eigenvalues --   -0.54117  -0.50261  -0.44561  -0.43303  -0.41142
 Alpha  occ. eigenvalues --   -0.36278
 Alpha virt. eigenvalues --   -0.11583  -0.07877  -0.07760  -0.06229  -0.04146
 Alpha virt. eigenvalues --   -0.03835  -0.03428  -0.03049  -0.02484  -0.01944
 Alpha virt. eigenvalues --   -0.01389  -0.01087  -0.00868   0.00017   0.00237

 Mulliken charges:
               1
     1  N   -0.457683
     2  H    0.254302
     3  H    0.164026
     4  C    1.155801
     5  H   -0.121810
     6  H   -0.113108
     7  C    0.224468
     8  H   -0.113697
     9  H   -0.231423
    10  C    1.035425
    11  H   -0.299500
    12  H   -0.350286
    13  N   -1.054992
    14  C   -0.364144
    15  C    1.677577
    16  H   -0.811798
    17  C   -0.890359
    18  Cl  -0.371134
    19  C    0.794921
    20  H   -0.441667
    21  C    0.845109
    22  H   -0.558114
    23  C    0.228485
    24  S    0.258394
    25  C    0.303349
    26  C   -0.092578
    27  C    1.308918
    28  H   -0.894675
    29  C    0.176997
    30  H   -0.515574
    31  C    0.604271
    32  H   -0.432502
    33  C    0.366656
    34  H   -0.509140
    35  H    0.225486
 Sum of Mulliken charges =   1.00000

 Dipole moment (field-independent basis, Debye):
    X=              3.3211    Y=             19.2553    Z=             -1.7687  Tot=             19.6195
 Quadrupole moment (field-independent basis, Debye-Ang):
   XX=           -105.6935   YY=            -19.8123   ZZ=           -127.3997
   XY=             23.9807   XZ=             -7.6272   YZ=            -11.9310

 Normal termination of Gaussian 16 at Sun Jul 18 18:22:40 2021.
