 Gaussian 16, Revision A.03,

 ---------------------------------------------------------------
 #p b3lyp/6-31G(d) opt freq scrf=(iefpcm,read,solvent=n-octanol)
 ---------------------------------------------------------------

 ---------------------------------------------
 SET_328_BBB268_conf1.geo_060_225_255 geometry
 ---------------------------------------------
 Symbolic Z-matrix:
 Charge =  1 Multiplicity = 1

 SCF Done:  E(RB3LYP) =  -976.585394735     A.U. after   14 cycles
 SCF Done:  E(RB3LYP) =  -976.626685023     A.U. after   12 cycles
 SCF Done:  E(RB3LYP) =  -976.651486182     A.U. after   12 cycles
 SCF Done:  E(RB3LYP) =  -976.654344808     A.U. after   11 cycles
 SCF Done:  E(RB3LYP) =  -976.655668512     A.U. after   11 cycles
 SCF Done:  E(RB3LYP) =  -976.656084116     A.U. after   14 cycles
 SCF Done:  E(RB3LYP) =  -976.657537494     A.U. after   11 cycles
 SCF Done:  E(RB3LYP) =  -976.658038859     A.U. after   12 cycles
 SCF Done:  E(RB3LYP) =  -976.658214918     A.U. after   11 cycles
 SCF Done:  E(RB3LYP) =  -976.658363148     A.U. after   10 cycles
 SCF Done:  E(RB3LYP) =  -976.658709524     A.U. after    8 cycles
 SCF Done:  E(RB3LYP) =  -976.658718668     A.U. after    7 cycles
 SCF Done:  E(RB3LYP) =  -976.658730802     A.U. after    9 cycles
 SCF Done:  E(RB3LYP) =  -976.658735244     A.U. after    8 cycles
 SCF Done:  E(RB3LYP) =  -976.658735276     A.U. after    7 cycles
 SCF Done:  E(RB3LYP) =  -976.658735317     A.U. after    7 cycles
 Optimization completed.
    -- Stationary point found.
 Normal termination of Gaussian 16 at Sun Jul 18 17:12:56 2021.

 --------------------------------------------------------------------
 #P Geom=AllCheck Guess=TCheck SCRF=Check GenChk RB3LYP/6-31G(d) Freq
 --------------------------------------------------------------------

 Structure from the checkpoint file:  "SET_328_BBB268_conf1.geo_060_225_255.chk"
 ---------------------------------------------
 SET_328_BBB268_conf1.geo_060_225_255 geometry
 ---------------------------------------------
 Charge =  1 Multiplicity = 1

 SCF Done:  E(RB3LYP) =  -976.658735317     A.U. after    1 cycles

  Exact polarizability: 431.087 -12.202 226.291   5.592  40.382 193.328
 Approx polarizability: 480.109 -16.680 289.936  12.546  66.328 267.640

                      1                      2                      3
                      A                      A                      A
 Frequencies --     14.3947                28.3968                40.2027
 Red. masses --      3.1266                 2.4572                 2.9335
 Frc consts  --      0.0004                 0.0012                 0.0028
 IR Inten    --      0.6294                 1.8792                 0.8238

                      4                      5                      6
                      A                      A                      A
 Frequencies --     45.4461                54.2277                60.7502
 Red. masses --      1.5797                 1.6808                 3.1907
 Frc consts  --      0.0019                 0.0029                 0.0069
 IR Inten    --      0.6852                 0.6577                 0.2406

                      7                      8                      9
                      A                      A                      A
 Frequencies --     77.1937                81.7509               109.2862
 Red. masses --      2.2963                 2.6991                 2.4029
 Frc consts  --      0.0081                 0.0106                 0.0169
 IR Inten    --      1.5656                 3.4961                 2.4940

                     10                     11                     12
                      A                      A                      A
 Frequencies --    113.6547               127.4940               146.1764
 Red. masses --      1.1048                 1.8170                 2.3306
 Frc consts  --      0.0084                 0.0174                 0.0293
 IR Inten    --      0.4031                 0.5660                 1.8466

                     13                     14                     15
                      A                      A                      A
 Frequencies --    153.6509               174.5402               194.1988
 Red. masses --      3.3913                 4.0924                 3.7343
 Frc consts  --      0.0472                 0.0735                 0.0830
 IR Inten    --      0.7482                 1.5212                 2.9180

                     16                     17                     18
                      A                      A                      A
 Frequencies --    234.2350               240.8482               254.0758
 Red. masses --      4.1474                 2.9345                 4.3720
 Frc consts  --      0.1341                 0.1003                 0.1663
 IR Inten    --      2.7446                 9.3690                 3.0730

                     19                     20                     21
                      A                      A                      A
 Frequencies --    299.8941               321.9688               327.6849
 Red. masses --      3.7300                 3.0039                 3.0552
 Frc consts  --      0.1976                 0.1835                 0.1933
 IR Inten    --      0.0741                 1.0288                 6.5678

                     22                     23                     24
                      A                      A                      A
 Frequencies --    353.1867               372.8780               389.0507
 Red. masses --      3.8580                 3.6837                 3.5838
 Frc consts  --      0.2835                 0.3018                 0.3196
 IR Inten    --      0.1155                 2.5544                 4.0219

                     25                     26                     27
                      A                      A                      A
 Frequencies --    407.2898               420.2313               450.0699
 Red. masses --      2.4984                 2.9952                 3.5527
 Frc consts  --      0.2442                 0.3116                 0.4240
 IR Inten    --      2.4441                 1.6524                13.9157

                     28                     29                     30
                      A                      A                      A
 Frequencies --    461.5553               491.6210               512.4028
 Red. masses --      3.7124                 4.5171                 4.0910
 Frc consts  --      0.4660                 0.6432                 0.6328
 IR Inten    --      0.4843                 5.5927                 4.4670

                     31                     32                     33
                      A                      A                      A
 Frequencies --    533.1793               579.0852               585.1118
 Red. masses --      3.3741                 5.1851                 3.1500
 Frc consts  --      0.5651                 1.0245                 0.6354
 IR Inten    --     27.8568                 0.6131                 1.1339

                     34                     35                     36
                      A                      A                      A
 Frequencies --    622.5618               634.9645               645.5243
 Red. masses --      4.5749                 5.1670                 1.3753
 Frc consts  --      1.0447                 1.2274                 0.3377
 IR Inten    --      9.6095                 7.0226               145.3324

                     37                     38                     39
                      A                      A                      A
 Frequencies --    650.9751               680.6743               704.5684
 Red. masses --      3.5548                 6.0066                 5.3735
 Frc consts  --      0.8876                 1.6397                 1.5716
 IR Inten    --     16.6708                 5.0395                 1.9837

                     40                     41                     42
                      A                      A                      A
 Frequencies --    733.5912               751.3823               761.2003
 Red. masses --      3.4195                 4.9787                 4.4434
 Frc consts  --      1.0842                 1.6561                 1.5169
 IR Inten    --      2.9642                 5.0807                 0.8654

                     43                     44                     45
                      A                      A                      A
 Frequencies --    791.4266               804.7518               826.2117
 Red. masses --      4.4220                 3.8366                 1.5071
 Frc consts  --      1.6319                 1.4639                 0.6061
 IR Inten    --      3.2215                20.1041                61.0488

                     46                     47                     48
                      A                      A                      A
 Frequencies --    828.3707               841.6028               858.2761
 Red. masses --      4.1701                 1.6366                 1.2734
 Frc consts  --      1.6860                 0.6830                 0.5527
 IR Inten    --      8.3290                26.0268                 3.6558

                     49                     50                     51
                      A                      A                      A
 Frequencies --    860.4314               884.4614               956.9503
 Red. masses --      1.3652                 4.8158                 2.5572
 Frc consts  --      0.5955                 2.2196                 1.3797
 IR Inten    --      0.1839                 2.4324                 6.2352

                     52                     53                     54
                      A                      A                      A
 Frequencies --    967.1662               980.5071               983.2726
 Red. masses --      1.3377                 1.8308                 1.7043
 Frc consts  --      0.7372                 1.0370                 0.9708
 IR Inten    --      3.6991                 1.0149                 1.3096

                     55                     56                     57
                      A                      A                      A
 Frequencies --    991.6880              1009.2762              1014.5684
 Red. masses --      1.3034                 2.5543                 1.4813
 Frc consts  --      0.7552                 1.5330                 0.8984
 IR Inten    --      0.1541                25.1188                 4.8804

                     58                     59                     60
                      A                      A                      A
 Frequencies --   1033.9541              1046.3940              1073.4546
 Red. masses --      2.3628                 2.0551                 1.5452
 Frc consts  --      1.4882                 1.3258                 1.0491
 IR Inten    --      1.8656                25.4408                 8.0249

                     61                     62                     63
                      A                      A                      A
 Frequencies --   1078.8187              1080.2490              1093.7322
 Red. masses --      2.2633                 1.5083                 1.3848
 Frc consts  --      1.5520                 1.0370                 0.9760
 IR Inten    --      0.4590                 7.5286                 7.0538

                     64                     65                     66
                      A                      A                      A
 Frequencies --   1133.6059              1153.7734              1172.5813
 Red. masses --      1.2239                 1.3684                 1.7539
 Frc consts  --      0.9267                 1.0733                 1.4208
 IR Inten    --      0.3920                11.7658                67.4783

                     67                     68                     69
                      A                      A                      A
 Frequencies --   1178.0736              1183.3450              1193.2632
 Red. masses --      1.3190                 1.4500                 2.8874
 Frc consts  --      1.0786                 1.1963                 2.4223
 IR Inten    --      4.1505                22.2085                19.3639

                     70                     71                     72
                      A                      A                      A
 Frequencies --   1220.3514              1222.2085              1245.4577
 Red. masses --      2.5970                 1.2773                 2.8795
 Frc consts  --      2.2788                 1.1242                 2.6316
 IR Inten    --     15.4914                30.1834                 2.4720

                     73                     74                     75
                      A                      A                      A
 Frequencies --   1258.9101              1280.0610              1291.8336
 Red. masses --      1.4082                 1.6611                 2.8671
 Frc consts  --      1.3149                 1.6037                 2.8191
 IR Inten    --      3.7911                26.1632                38.2276

                     76                     77                     78
                      A                      A                      A
 Frequencies --   1294.2404              1327.9155              1343.3399
 Red. masses --      4.1338                 1.8967                 3.2260
 Frc consts  --      4.0797                 1.9705                 3.4299
 IR Inten    --     34.2044                 1.1449                 0.1871

                     79                     80                     81
                      A                      A                      A
 Frequencies --   1355.3798              1364.5361              1398.3330
 Red. masses --      1.6700                 1.8062                 3.1980
 Frc consts  --      1.8075                 1.9815                 3.6842
 IR Inten    --      1.9793                18.7292                 8.3997

                     82                     83                     84
                      A                      A                      A
 Frequencies --   1409.7411              1434.3641              1440.8651
 Red. masses --      4.8490                 1.2943                 2.9327
 Frc consts  --      5.6778                 1.5689                 3.5872
 IR Inten    --     20.8646                 3.0539                22.5666

                     85                     86                     87
                      A                      A                      A
 Frequencies --   1445.0054              1452.0460              1458.4934
 Red. masses --      1.2740                 1.2778                 2.4635
 Frc consts  --      1.5673                 1.5873                 3.0875
 IR Inten    --      0.9889                35.2304                27.5856

                     88                     89                     90
                      A                      A                      A
 Frequencies --   1461.2226              1490.0611              1491.6957
 Red. masses --      1.9717                 1.1831                 2.3125
 Frc consts  --      2.4804                 1.5476                 3.0318
 IR Inten    --     83.5849                26.3401                48.4493

                     91                     92                     93
                      A                      A                      A
 Frequencies --   1498.4002              1504.9385              1508.2643
 Red. masses --      1.0731                 1.0422                 1.0445
 Frc consts  --      1.4195                 1.3907                 1.3999
 IR Inten    --     25.9903                10.4239                 8.7021

                     94                     95                     96
                      A                      A                      A
 Frequencies --   1509.7599              1511.0766              1514.8990
 Red. masses --      1.1054                 1.1200                 1.2071
 Frc consts  --      1.4846                 1.5068                 1.6322
 IR Inten    --     21.4338                11.4968                18.1595

                     97                     98                     99
                      A                      A                      A
 Frequencies --   1524.5215              1531.8153              1556.7998
 Red. masses --      1.0447                 1.0893                 2.6855
 Frc consts  --      1.4305                 1.5060                 3.8348
 IR Inten    --     18.3961                 3.5060                85.3015

                    100                    101                    102
                      A                      A                      A
 Frequencies --   1564.8059              1576.0080              1615.2947
 Red. masses --      1.3412                 4.2542                 5.3373
 Frc consts  --      1.9349                 6.2256                 8.2049
 IR Inten    --     65.8452               113.5175                 1.7844

                    103                    104                    105
                      A                      A                      A
 Frequencies --   1621.4350              1651.4245              1671.9917
 Red. masses --      5.3972                 6.0689                 5.6892
 Frc consts  --      8.3603                 9.7516                 9.3707
 IR Inten    --      0.8269               104.3364                60.5700

                    106                    107                    108
                      A                      A                      A
 Frequencies --   1717.3706              1743.5001              3061.8063
 Red. masses --      6.3198                 8.7881                 1.0389
 Frc consts  --     10.9820                15.7395                 5.7381
 IR Inten    --     52.5177               478.5347                32.8405

                    109                    110                    111
                      A                      A                      A
 Frequencies --   3064.1107              3068.5162              3072.9955
 Red. masses --      1.0368                 1.0385                 1.0626
 Frc consts  --      5.7353                 5.7611                 5.9123
 IR Inten    --     35.7325                76.3658                14.3411

                    112                    113                    114
                      A                      A                      A
 Frequencies --   3076.9886              3112.5680              3120.2572
 Red. masses --      1.0375                 1.1051                 1.0992
 Frc consts  --      5.7872                 6.3081                 6.3054
 IR Inten    --     23.4948                46.7932                 2.9974

                    115                    116                    117
                      A                      A                      A
 Frequencies --   3121.2144              3121.7477              3135.6772
 Red. masses --      1.1008                 1.1056                 1.1018
 Frc consts  --      6.3186                 6.3479                 6.3829
 IR Inten    --     20.4291                19.2220                10.1522

                    118                    119                    120
                      A                      A                      A
 Frequencies --   3144.8104              3167.5995              3201.3338
 Red. masses --      1.1027                 1.1020                 1.0869
 Frc consts  --      6.4253                 6.5146                 6.5630
 IR Inten    --     21.4946                13.6531                12.5612

                    121                    122                    123
                      A                      A                      A
 Frequencies --   3206.6604              3211.4648              3217.0636
 Red. masses --      1.0947                 1.0899                 1.0954
 Frc consts  --      6.6320                 6.6231                 6.6793
 IR Inten    --     21.2715                24.1596                10.6029

                    124                    125                    126
                      A                      A                      A
 Frequencies --   3217.0864              3240.9809              3248.0954
 Red. masses --      1.0965                 1.0903                 1.0929
 Frc consts  --      6.6862                 6.7476                 6.7933
 IR Inten    --      7.0070                 1.4001                 2.1985

                    127                    128                    129
                      A                      A                      A
 Frequencies --   3264.0951              3290.4167              3592.7716
 Red. masses --      1.0957                 1.0927                 1.0835
 Frc consts  --      6.8782                 6.9706                 8.2399
 IR Inten    --      0.1994                 0.8098               360.9680

 - Thermochemistry -
 -------------------
 Temperature   298.150 Kelvin.  Pressure   1.00000 Atm.
 Atom     1 has atomic number  6 and mass  12.00000

 Molecular mass:   308.17629 amu.
 Principal axes and moments of inertia in atomic units:
                           1         2         3
     Eigenvalues --  3943.05067********************
           X            0.99996  -0.00882  -0.00344
           Y            0.00878   0.99988  -0.01248
           Z            0.00355   0.01245   0.99992
 This molecule is an asymmetric top.
 Rotational symmetry number  1.
 Warning -- assumption of classical behavior for rotation
           may cause significant error
 Rotational temperatures (Kelvin)      0.02197     0.00794     0.00653
 Rotational constants (GHZ):           0.45770     0.16538     0.13598
 Zero-point vibrational energy    1000843.7 (Joules/Mol)
                                  239.20740 (Kcal/Mol)
 Warning -- explicit consideration of  33 degrees of freedom as
           vibrations may cause significant error
 Vibrational temperatures:     20.71    40.86    57.84    65.39    78.02
          (Kelvin)             87.41   111.06   117.62   157.24   163.52
                              183.44   210.32   221.07   251.12   279.41
                              337.01   346.53   365.56   431.48   463.24
                              471.47   508.16   536.49   559.76   586.00
                              604.62   647.55   664.08   707.33   737.23
                              767.13   833.17   841.85   895.73   913.57
                              928.77   936.61   979.34  1013.72  1055.47
                             1081.07  1095.20  1138.69  1157.86  1188.73
                             1191.84  1210.88  1234.87  1237.97  1272.54
                             1376.84  1391.54  1410.73  1414.71  1426.82
                             1452.12  1459.74  1487.63  1505.53  1544.46
                             1552.18  1554.24  1573.64  1631.01  1660.02
                             1687.08  1694.99  1702.57  1716.84  1755.81
                             1758.49  1791.94  1811.29  1841.72  1858.66
                             1862.12  1910.57  1932.77  1950.09  1963.26
                             2011.89  2028.30  2063.73  2073.08  2079.04
                             2089.17  2098.45  2102.37  2143.87  2146.22
                             2155.86  2165.27  2170.06  2172.21  2174.10
                             2179.60  2193.45  2203.94  2239.89  2251.41
                             2267.52  2324.05  2332.88  2376.03  2405.62
                             2470.91  2508.51  4405.26  4408.57  4414.91
                             4421.36  4427.10  4478.29  4489.35  4490.73
                             4491.50  4511.54  4524.68  4557.47  4606.01
                             4613.67  4620.58  4628.64  4628.67  4663.05
                             4673.28  4696.30  4734.18  5169.20

 Zero-point correction=                           0.381201 (Hartree/Particle)
 Thermal correction to Energy=                    0.403521
 Thermal correction to Enthalpy=                  0.404465
 Thermal correction to Gibbs Free Energy=         0.327138
 Sum of electronic and zero-point Energies=           -976.277534
 Sum of electronic and thermal Energies=              -976.255215
 Sum of electronic and thermal Enthalpies=            -976.254271
 Sum of electronic and thermal Free Energies=         -976.331597

                     E (Thermal)             CV                S
                      KCal/Mol        Cal/Mol-Kelvin    Cal/Mol-Kelvin
 Total                  253.213             83.340            162.747
 Electronic               0.000              0.000              0.000
 Translational            0.889              2.981             43.073
 Rotational               0.889              2.981             34.701
 Vibrational            251.436             77.378             84.974
 Vibration     1          0.593              1.986              7.287
 Vibration     2          0.593              1.984              5.938
 Vibration     3          0.594              1.981              5.249
 Vibration     4          0.595              1.979              5.006
 Vibration     5          0.596              1.976              4.657
 Vibration     6          0.597              1.973              4.433
 Vibration     7          0.599              1.964              3.961
 Vibration     8          0.600              1.962              3.848
 Vibration     9          0.606              1.942              3.282
 Vibration    10          0.607              1.938              3.206
 Vibration    11          0.611              1.926              2.984
 Vibration    12          0.617              1.907              2.721
 Vibration    13          0.619              1.899              2.627
 Vibration    14          0.627              1.874              2.386
 Vibration    15          0.635              1.848              2.187
 Vibration    16          0.654              1.788              1.846
 Vibration    17          0.658              1.778              1.797
 Vibration    18          0.665              1.756              1.702
 Vibration    19          0.692              1.674              1.417
 Vibration    20          0.707              1.631              1.300
 Vibration    21          0.711              1.620              1.271
 Vibration    22          0.729              1.569              1.152
 Vibration    23          0.744              1.528              1.068
 Vibration    24          0.757              1.494              1.004
 Vibration    25          0.772              1.454              0.936
 Vibration    26          0.783              1.426              0.891
 Vibration    27          0.809              1.361              0.796
 Vibration    28          0.819              1.335              0.762
 Vibration    29          0.847              1.269              0.679
 Vibration    30          0.867              1.223              0.628
 Vibration    31          0.888              1.177              0.580
 Vibration    32          0.936              1.077              0.487
 Vibration    33          0.942              1.064              0.476

                           ! Non-Optimized Parameters !
 Normal termination of Gaussian 16 at Sun Jul 18 18:29:38 2021.

 ----------------------------------------------------------------------
 #p b3lyp/6-31G(d) scrf=(iefpcm,read,solvent=n-octanol) geom=allcheck g
 uess=read
 ----------------------------------------------------------------------

 Structure from the checkpoint file:  "SET_328_BBB268_conf1.geo_060_225_255.chk"
 ---------------------------------------------
 SET_328_BBB268_conf1.geo_060_225_255 geometry
 ---------------------------------------------
 Charge =  1 Multiplicity = 1

 SCF Done:  E(RB3LYP) =  -976.658735317     A.U. after    1 cycles
 Normal termination of Gaussian 16 at Sun Jul 18 18:31:26 2021.

 -----------------------------
 #p B3LYP/6-31G* geom=allcheck
 -----------------------------

 Structure from the checkpoint file:  "SET_328_BBB268_conf1.geo_060_225_255.chk"
 ---------------------------------------------
 SET_328_BBB268_conf1.geo_060_225_255 geometry
 ---------------------------------------------
 Charge =  1 Multiplicity = 1

 SCF Done:  E(RB3LYP) =  -976.577188048     A.U. after   16 cycles
 Normal termination of Gaussian 16 at Sun Jul 18 18:35:52 2021.
 Gaussian 16:  ES64L-G16RevA.03 25-Dec-2016

 --------------------------------------------------------
 #p mp2/aug-cc-pVDZ scf=tight maxdisk=180GB geom=allcheck
 --------------------------------------------------------

 Structure from the checkpoint file:  "SET_328_BBB268_conf1.geo_060_225_255.chk"
 ---------------------------------------------
 SET_328_BBB268_conf1.geo_060_225_255 geometry
 ---------------------------------------------
 Charge =  1 Multiplicity = 1

                         Standard orientation:
 ---------------------------------------------------------------------
 Center     Atomic      Atomic             Coordinates (Angstroms)
 Number     Number       Type             X           Y           Z
 ---------------------------------------------------------------------
      1          6           0        2.395165    2.999175   -1.063932
      2          1           0        2.300747    3.946348   -1.604468
      3          1           0        2.963623    2.298436   -1.683268
      4          1           0        2.912343    3.162340   -0.122100
      5          7           0        1.076027    2.454116   -0.773730
      6          6           0        0.252055    2.164322   -1.936069
      7          1           0        0.690143    1.351974   -2.525135
      8          1           0        0.187246    3.054164   -2.571222
      9          1           0       -0.755815    1.876149   -1.645564
     10          6           0        0.722310    2.248946    0.521988
     11          8           0        1.447841    2.541829    1.471735
     12          6           0       -0.665013    1.658290    0.810184
     13          1           0       -1.423807    2.296551    0.344667
     14          1           0       -0.791263    1.761680    1.890892
     15          6           0       -0.906429    0.241782    0.389958
     16          6           0       -0.090592   -0.833917    0.107972
     17          6           0        1.367728   -0.998201    0.134467
     18          6           0        2.135003   -0.490244    1.191439
     19          6           0        3.512956   -0.687757    1.213404
     20          6           0        4.166692   -1.395173    0.198620
     21          6           0        5.659748   -1.606942    0.235860
     22          1           0        6.141553   -1.195733   -0.657567
     23          1           0        5.907896   -2.672163    0.270677
     24          1           0        6.104497   -1.127825    1.111822
     25          6           0        3.391513   -1.899979   -0.857511
     26          6           0        2.015843   -1.707808   -0.892536
     27          1           0        1.443396   -2.090290   -1.732672
     28          1           0        3.872486   -2.443575   -1.664720
     29          1           0        4.092249   -0.287757    2.038877
     30          1           0        1.663447    0.069945    1.988547
     31          7           0       -0.912999   -1.889396   -0.259330
     32          6           0       -2.207595   -1.520777   -0.189583
     33          6           0       -3.397906   -2.212590   -0.437228
     34          1           0       -3.361449   -3.246327   -0.752889
     35          6           0       -4.581588   -1.534468   -0.264189
     36          1           0       -5.519855   -2.044411   -0.446576
     37          6           0       -4.604093   -0.174183    0.153864
     38          6           0       -5.903811    0.555739    0.342119
     39          1           0       -5.735931    1.585783    0.659991
     40          1           0       -6.522676    0.061843    1.097159
     41          1           0       -6.477357    0.575293   -0.588887
     42          6           0       -3.412030    0.460502    0.387969
     43          1           0       -3.339210    1.484851    0.720721
     44          7           0       -2.224586   -0.209636    0.214459
     45          1           0       -0.603825   -2.837790   -0.452737
 ---------------------------------------------------------------------

 SCF Done:  E(RHF) =  -970.459785801     A.U. after   18 cycles
 E2 =    -0.3339929867D+01 EUMP2 =    -0.97379971566829D+03

 The electronic state is 1-A.
 Alpha  occ. eigenvalues --  -20.62464 -15.82652 -15.78976 -15.69622 -11.50436
 Alpha  occ. eigenvalues --  -11.46586 -11.44836 -11.44672 -11.43403 -11.41857
 Alpha  occ. eigenvalues --  -11.41096 -11.40686 -11.38684 -11.37600 -11.36900
 Alpha  occ. eigenvalues --  -11.36129 -11.36007 -11.35483 -11.35233 -11.34658
 Alpha  occ. eigenvalues --  -11.34182 -11.33662 -11.31767  -1.55102  -1.48125
 Alpha  occ. eigenvalues --   -1.41579  -1.34872  -1.29772  -1.27211  -1.22564
 Alpha  occ. eigenvalues --   -1.19950  -1.16529  -1.13152  -1.12420  -1.10072
 Alpha  occ. eigenvalues --   -1.07246  -1.05101  -1.03749  -1.01270  -1.00575
 Alpha  occ. eigenvalues --   -0.96722  -0.93911  -0.91057  -0.89748  -0.85727
 Alpha  occ. eigenvalues --   -0.84461  -0.82415  -0.81481  -0.81212  -0.80327
 Alpha  occ. eigenvalues --   -0.78378  -0.77165  -0.76003  -0.75533  -0.74382
 Alpha  occ. eigenvalues --   -0.74286  -0.71880  -0.70797  -0.69874  -0.69427
 Alpha  occ. eigenvalues --   -0.69195  -0.68597  -0.67574  -0.67225  -0.66470
 Alpha  occ. eigenvalues --   -0.65886  -0.65813  -0.65380  -0.65198  -0.63008
 Alpha  occ. eigenvalues --   -0.62438  -0.61873  -0.60070  -0.59725  -0.58986
 Alpha  occ. eigenvalues --   -0.58283  -0.52378  -0.49455  -0.47156  -0.46369
 Alpha  occ. eigenvalues --   -0.44232  -0.41820
 Alpha virt. eigenvalues --   -0.07559  -0.06610  -0.05478  -0.04661  -0.04352
 Alpha virt. eigenvalues --   -0.03441  -0.03175  -0.02935  -0.02790  -0.02463
 Alpha virt. eigenvalues --   -0.01820  -0.01579  -0.01344  -0.01026  -0.00646

 Mulliken charges:
               1
     1  C    0.884110
     2  H   -0.142221
     3  H   -0.069814
     4  H   -0.264157
     5  N   -0.447505
     6  C    1.067672
     7  H   -0.144428
     8  H   -0.154988
     9  H   -0.427385
    10  C    0.858501
    11  O   -0.969589
    12  C    0.520157
    13  H   -0.006212
    14  H   -0.101334
    15  C   -0.318552
    16  C    0.054526
    17  C    2.183501
    18  C    0.317372
    19  C   -0.144353
    20  C   -0.052490
    21  C    0.729710
    22  H    0.104050
    23  H    0.113653
    24  H   -0.169844
    25  C    0.254717
    26  C    0.479370
    27  H   -0.813211
    28  H   -0.654255
    29  H   -0.707484
    30  H   -0.704623
    31  N   -0.874388
    32  C   -0.496363
    33  C    1.446414
    34  H   -0.514691
    35  C    0.156769
    36  H   -0.607379
    37  C   -0.050578
    38  C    0.536560
    39  H   -0.148379
    40  H    0.113475
    41  H    0.119449
    42  C    1.805855
    43  H   -0.674556
    44  N   -0.988875
    45  H   -0.098201
 Sum of Mulliken charges =   1.00000

 Dipole moment (field-independent basis, Debye):
    X=             -8.2351    Y=             -4.2448    Z=             -3.3358  Tot=              9.8469
 Quadrupole moment (field-independent basis, Debye-Ang):
   XX=            -59.3686   YY=           -113.4313   ZZ=           -133.0329
   XY=             -0.6968   XZ=             -4.9137   YZ=             -1.7736

 Normal termination of Gaussian 16 at Sun Jul 18 21:24:09 2021.
