 Gaussian 16, Revision A.03,

 ---------------------------------------------------------------
 #p b3lyp/6-31G(d) opt freq scrf=(iefpcm,read,solvent=n-octanol)
 ---------------------------------------------------------------

 ---------------------------------------------
 SET_328_BBB256_conf1.geo_180_300_120 geometry
 ---------------------------------------------
 Symbolic Z-matrix:
 Charge =  1 Multiplicity = 1

 SCF Done:  E(RB3LYP) =  -422.027545068     A.U. after   13 cycles
 SCF Done:  E(RB3LYP) =  -422.041910172     A.U. after   12 cycles
 SCF Done:  E(RB3LYP) =  -422.037234604     A.U. after   12 cycles
 SCF Done:  E(RB3LYP) =  -422.045087592     A.U. after   10 cycles
 SCF Done:  E(RB3LYP) =  -422.045300740     A.U. after   10 cycles
 SCF Done:  E(RB3LYP) =  -422.045287399     A.U. after   10 cycles
 SCF Done:  E(RB3LYP) =  -422.045569164     A.U. after   10 cycles
 SCF Done:  E(RB3LYP) =  -422.045587177     A.U. after   10 cycles
 SCF Done:  E(RB3LYP) =  -422.045788785     A.U. after   11 cycles
 SCF Done:  E(RB3LYP) =  -422.030392950     A.U. after   13 cycles
 SCF Done:  E(RB3LYP) =  -422.052834896     A.U. after    8 cycles
 SCF Done:  E(RB3LYP) =  -422.052850567     A.U. after    8 cycles
 SCF Done:  E(RB3LYP) =  -422.052855057     A.U. after    8 cycles
 SCF Done:  E(RB3LYP) =  -422.052855638     A.U. after    7 cycles
 SCF Done:  E(RB3LYP) =  -422.052856210     A.U. after    8 cycles
 SCF Done:  E(RB3LYP) =  -422.052856853     A.U. after    7 cycles
 Optimization completed.
    -- Stationary point found.
 Normal termination of Gaussian 16 at Sun Jul 18 14:18:49 2021.

 --------------------------------------------------------------------
 #P Geom=AllCheck Guess=TCheck SCRF=Check GenChk RB3LYP/6-31G(d) Freq
 --------------------------------------------------------------------

 Structure from the checkpoint file:  "SET_328_BBB256_conf1.geo_180_300_120.chk"
 ---------------------------------------------
 SET_328_BBB256_conf1.geo_180_300_120 geometry
 ---------------------------------------------
 Charge =  1 Multiplicity = 1

 SCF Done:  E(RB3LYP) =  -422.052856853     A.U. after    1 cycles

  Exact polarizability: 140.224   4.170 122.914 -10.369   3.520  63.964
 Approx polarizability: 162.497   4.083 159.043 -15.383   6.130  81.100

                      1                      2                      3
                      A                      A                      A
 Frequencies --     64.7649               133.0239               164.7097
 Red. masses --      4.0164                 3.2659                 2.2650
 Frc consts  --      0.0099                 0.0341                 0.0362
 IR Inten    --      4.0015                11.7328                 7.3544

                      4                      5                      6
                      A                      A                      A
 Frequencies --    210.1892               255.6516               293.5670
 Red. masses --      1.7043                 2.0362                 2.5444
 Frc consts  --      0.0444                 0.0784                 0.1292
 IR Inten    --     14.0468                 9.3958                34.1362

                      7                      8                      9
                      A                      A                      A
 Frequencies --    305.3367               330.4246               419.2247
 Red. masses --      1.9019                 2.8142                 3.4993
 Frc consts  --      0.1045                 0.1810                 0.3624
 IR Inten    --      4.1507                 8.2335                 5.7382

                     10                     11                     12
                      A                      A                      A
 Frequencies --    468.0306               509.3205               605.4984
 Red. masses --      2.3409                 3.8155                 2.9051
 Frc consts  --      0.3021                 0.5832                 0.6275
 IR Inten    --      3.5223                 1.9511                 2.8822

                     13                     14                     15
                      A                      A                      A
 Frequencies --    650.3626               760.5112               776.0501
 Red. masses --      6.7616                 4.0177                 1.3430
 Frc consts  --      1.6850                 1.3691                 0.4765
 IR Inten    --      9.8533                 1.7236                38.6068

                     16                     17                     18
                      A                      A                      A
 Frequencies --    799.0086               835.8723               884.9125
 Red. masses --      2.6852                 2.2278                 1.2339
 Frc consts  --      1.0100                 0.9171                 0.5693
 IR Inten    --     21.8037                 6.3798                33.9358

                     19                     20                     21
                      A                      A                      A
 Frequencies --    915.0764               968.7108               985.2782
 Red. masses --      1.3006                 1.7123                 1.3800
 Frc consts  --      0.6416                 0.9467                 0.7893
 IR Inten    --      0.5551                 6.4033                 0.0737

                     22                     23                     24
                      A                      A                      A
 Frequencies --   1004.5527              1024.0483              1028.7977
 Red. masses --      2.2197                 1.3137                 5.8707
 Frc consts  --      1.3197                 0.8117                 3.6610
 IR Inten    --      8.5336                 0.1553                32.1075

                     25                     26                     27
                      A                      A                      A
 Frequencies --   1039.5535              1065.8664              1076.6721
 Red. masses --      3.0412                 2.0899                 2.1942
 Frc consts  --      1.9363                 1.3989                 1.4986
 IR Inten    --      4.9316                 3.1662                 5.9805

                     28                     29                     30
                      A                      A                      A
 Frequencies --   1123.7477              1160.6038              1183.5368
 Red. masses --      1.5340                 1.2518                 1.3669
 Frc consts  --      1.1414                 0.9934                 1.1281
 IR Inten    --     26.7907                 5.5770                16.7582

                     31                     32                     33
                      A                      A                      A
 Frequencies --   1186.7340              1243.5836              1270.0208
 Red. masses --      1.1205                 2.0985                 1.5632
 Frc consts  --      0.9297                 1.9121                 1.4856
 IR Inten    --      5.3462                 2.3430                 3.2867

                     34                     35                     36
                      A                      A                      A
 Frequencies --   1313.4360              1319.7595              1346.2778
 Red. masses --      2.8071                 1.7961                 1.3940
 Frc consts  --      2.8532                 1.8432                 1.4886
 IR Inten    --      3.1203                25.9745                14.4218

                     37                     38                     39
                      A                      A                      A
 Frequencies --   1395.2132              1401.0887              1448.8897
 Red. masses --      1.4306                 1.4199                 1.1296
 Frc consts  --      1.6408                 1.6423                 1.3971
 IR Inten    --      5.0427                20.9168                63.8719

                     40                     41                     42
                      A                      A                      A
 Frequencies --   1474.1651              1486.6235              1502.0062
 Red. masses --      1.3202                 1.4951                 1.4362
 Frc consts  --      1.6903                 1.9468                 1.9090
 IR Inten    --    129.4070                15.8338               156.1566

                     43                     44                     45
                      A                      A                      A
 Frequencies --   1508.1852              1523.5491              1526.2362
 Red. masses --      1.1492                 1.7208                 1.0800
 Frc consts  --      1.5401                 2.3535                 1.4822
 IR Inten    --     17.4009                26.8980                 9.2035

                     46                     47                     48
                      A                      A                      A
 Frequencies --   1530.7689              1534.8570              1634.1630
 Red. masses --      1.1744                 1.0502                 5.8632
 Frc consts  --      1.6214                 1.4577                 9.2251
 IR Inten    --     26.8318                46.4780                23.2722

                     49                     50                     51
                      A                      A                      A
 Frequencies --   1658.7403              1677.7175              3031.9873
 Red. masses --      5.5161                 1.0642                 1.0786
 Frc consts  --      8.9420                 1.7649                 5.8421
 IR Inten    --     60.5738                64.7904              1068.4541

                     52                     53                     54
                      A                      A                      A
 Frequencies --   3083.2626              3121.6623              3123.4767
 Red. masses --      1.0670                 1.0467                 1.0447
 Frc consts  --      5.9765                 6.0095                 6.0051
 IR Inten    --     10.4029                 3.1779                 8.0434

                     55                     56                     57
                      A                      A                      A
 Frequencies --   3143.4428              3179.0315              3210.8703
 Red. masses --      1.0945                 1.1103                 1.0906
 Frc consts  --      6.3722                 6.6109                 6.6246
 IR Inten    --      9.1235                 7.0173                17.7450

                     58                     59                     60
                      A                      A                      A
 Frequencies --   3214.7533              3221.8620              3225.0583
 Red. masses --      1.1087                 1.1090                 1.0888
 Frc consts  --      6.7506                 6.7824                 6.6723
 IR Inten    --      3.3315                 4.8178                 6.4307

                     61                     62                     63
                      A                      A                      A
 Frequencies --   3239.4818              3254.0686              3432.8610
 Red. masses --      1.0942                 1.0964                 1.0774
 Frc consts  --      6.7652                 6.8400                 7.4806
 IR Inten    --     12.3271                 9.2397               150.6381

 - Thermochemistry -
 -------------------
 Temperature   298.150 Kelvin.  Pressure   1.00000 Atm.
 Atom     1 has atomic number  6 and mass  12.00000

 Molecular mass:   137.10787 amu.
 Principal axes and moments of inertia in atomic units:
                           1         2         3
     Eigenvalues --   627.511802285.817942786.52328
           X            0.99997  -0.00707   0.00123
           Y            0.00707   0.99997  -0.00292
           Z           -0.00121   0.00293   0.99999
 This molecule is an asymmetric top.
 Rotational symmetry number  1.
 Warning -- assumption of classical behavior for rotation
           may cause significant error
 Rotational temperatures (Kelvin)      0.13803     0.03789     0.03108
 Rotational constants (GHZ):           2.87603     0.78954     0.64767
 Zero-point vibrational energy     547331.8 (Joules/Mol)
                                  130.81545 (Kcal/Mol)
 Warning -- explicit consideration of  12 degrees of freedom as
           vibrations may cause significant error
 Vibrational temperatures:     93.18   191.39   236.98   302.42   367.83
          (Kelvin)            422.38   439.31   475.41   603.17   673.39
                              732.80   871.18   935.73  1094.21  1116.56
                             1149.60  1202.63  1273.19  1316.59  1393.76
                             1417.60  1445.33  1473.38  1480.21  1495.69
                             1533.54  1549.09  1616.82  1669.85  1702.85
                             1707.45  1789.24  1827.28  1889.74  1898.84
                             1936.99  2007.40  2015.85  2084.63  2120.99
                             2138.92  2161.05  2169.94  2192.05  2195.91
                             2202.44  2208.32  2351.20  2386.56  2413.86
                             4362.35  4436.13  4491.38  4493.99  4522.71
                             4573.92  4619.73  4625.31  4635.54  4640.14
                             4660.89  4681.88  4939.12

 Zero-point correction=                           0.208468 (Hartree/Particle)
 Thermal correction to Energy=                    0.217597
 Thermal correction to Enthalpy=                  0.218541
 Thermal correction to Gibbs Free Energy=         0.174182
 Sum of electronic and zero-point Energies=           -421.844389
 Sum of electronic and thermal Energies=              -421.835260
 Sum of electronic and thermal Enthalpies=            -421.834316
 Sum of electronic and thermal Free Energies=         -421.878675

                     E (Thermal)             CV                S
                      KCal/Mol        Cal/Mol-Kelvin    Cal/Mol-Kelvin
 Total                  136.544             35.368             93.363
 Electronic               0.000              0.000              0.000
 Translational            0.889              2.981             40.659
 Rotational               0.889              2.981             29.770
 Vibrational            134.767             29.407             22.934
 Vibration     1          0.597              1.971              4.306
 Vibration     2          0.613              1.920              2.902
 Vibration     3          0.623              1.886              2.495
 Vibration     4          0.642              1.825              2.042
 Vibration     5          0.666              1.753              1.691
 Vibration     6          0.688              1.686              1.453
 Vibration     7          0.696              1.664              1.387
 Vibration     8          0.713              1.615              1.258
 Vibration     9          0.782              1.428              0.895
 Vibration    10          0.825              1.321              0.743
 Vibration    11          0.864              1.229              0.635
 Vibration    12          0.964              1.020              0.440

 Optimization completed.
    -- Stationary point found.
 Normal termination of Gaussian 16 at Sun Jul 18 14:29:02 2021.

 ----------------------------------------------------------------------
 #p b3lyp/6-31G(d) scrf=(iefpcm,read,solvent=n-octanol) geom=allcheck g
 uess=read
 ----------------------------------------------------------------------

 Structure from the checkpoint file:  "SET_328_BBB256_conf1.geo_180_300_120.chk"
 ---------------------------------------------
 SET_328_BBB256_conf1.geo_180_300_120 geometry
 ---------------------------------------------
 Charge =  1 Multiplicity = 1

 SCF Done:  E(RB3LYP) =  -422.057492443     A.U. after    1 cycles
 Normal termination of Gaussian 16 at Sun Jul 18 14:29:27 2021.

 -----------------------------
 #p B3LYP/6-31G* geom=allcheck
 -----------------------------

 Structure from the checkpoint file:  "SET_328_BBB256_conf1.geo_180_300_120.chk"
 ---------------------------------------------
 SET_328_BBB256_conf1.geo_180_300_120 geometry
 ---------------------------------------------
 Charge =  1 Multiplicity = 1

 SCF Done:  E(RB3LYP) =  -421.972204043     A.U. after   14 cycles
 Normal termination of Gaussian 16 at Sun Jul 18 14:30:25 2021.
 Gaussian 16:  ES64L-G16RevA.03 25-Dec-2016

 --------------------------------------------------------
 #p mp2/aug-cc-pVDZ scf=tight maxdisk=180GB geom=allcheck
 --------------------------------------------------------

 Structure from the checkpoint file:  "SET_328_BBB256_conf1.geo_180_300_120.chk"
 ---------------------------------------------
 SET_328_BBB256_conf1.geo_180_300_120 geometry
 ---------------------------------------------
 Charge =  1 Multiplicity = 1

                         Standard orientation:
 ---------------------------------------------------------------------
 Center     Atomic      Atomic             Coordinates (Angstroms)
 Number     Number       Type             X           Y           Z
 ---------------------------------------------------------------------
      1          6           0       -3.378015    1.016041   -0.396497
      2          1           0       -4.247498    0.367896   -0.494621
      3          1           0       -2.992788    1.277788   -1.380147
      4          1           0       -3.642509    1.916955    0.155989
      5          7           0       -2.310894    0.290994    0.351967
      6          1           0       -2.627012    0.095783    1.311382
      7          6           0       -1.864932   -0.983997   -0.315013
      8          1           0       -1.700176   -0.735087   -1.363973
      9          1           0       -2.687171   -1.698539   -0.249472
     10          6           0       -0.590513   -1.536617    0.324503
     11          1           0       -0.389959   -2.511647   -0.123393
     12          1           0       -0.764703   -1.720765    1.391874
     13          6           0        0.619025   -0.641422    0.147958
     14          7           0        0.417473    0.680391    0.301012
     15          6           0        1.458796    1.513294    0.172479
     16          1           0        1.244354    2.569764    0.301113
     17          6           0        2.749052    1.073853   -0.108626
     18          1           0        3.559662    1.785257   -0.199566
     19          6           0        2.959244   -0.294311   -0.274355
     20          1           0        3.947191   -0.677571   -0.504286
     21          6           0        1.879267   -1.164713   -0.147448
     22          1           0        2.002940   -2.233048   -0.277920
     23          1           0       -1.439927    0.870758    0.444165
 ---------------------------------------------------------------------

 SCF Done:  E(RHF) =  -419.269358419     A.U. after   15 cycles
 E2 =    -0.1461628718D+01 EUMP2 =    -0.42073098713650D+03

 The electronic state is 1-A.
 Alpha  occ. eigenvalues --  -15.84220 -15.71578 -11.45484 -11.44797 -11.42794
 Alpha  occ. eigenvalues --  -11.41411 -11.40045 -11.39009 -11.37289 -11.36869
 Alpha  occ. eigenvalues --   -1.47161  -1.40199  -1.23011  -1.21688  -1.15800
 Alpha  occ. eigenvalues --   -1.11077  -1.04552  -0.99457  -0.95979  -0.93465
 Alpha  occ. eigenvalues --   -0.84268  -0.83501  -0.82219  -0.79361  -0.78172
 Alpha  occ. eigenvalues --   -0.75695  -0.73385  -0.72897  -0.70999  -0.70438
 Alpha  occ. eigenvalues --   -0.69205  -0.67914  -0.65846  -0.64104  -0.56196
 Alpha  occ. eigenvalues --   -0.51304  -0.47005
 Alpha virt. eigenvalues --   -0.08183  -0.06264  -0.06139  -0.05361  -0.03939
 Alpha virt. eigenvalues --   -0.03624  -0.03519  -0.03323  -0.03097  -0.02015
 Alpha virt. eigenvalues --   -0.01736  -0.01507  -0.01045  -0.00242   0.00372

 Mulliken charges:
               1
     1  C    0.780074
     2  H   -0.057181
     3  H   -0.093011
     4  H   -0.116679
     5  N   -0.696248
     6  H    0.224599
     7  C    1.019106
     8  H   -0.239210
     9  H   -0.212194
    10  C    0.309064
    11  H    0.009528
    12  H    0.032597
    13  C   -0.088490
    14  N   -0.631139
    15  C    0.464535
    16  H   -0.418355
    17  C    0.838385
    18  H   -0.403232
    19  C   -0.166030
    20  H   -0.388502
    21  C    1.135446
    22  H   -0.560733
    23  H    0.257671
 Sum of Mulliken charges =   1.00000

 Dipole moment (field-independent basis, Debye):
    X=             -5.8909    Y=             -0.0237    Z=              0.2622  Tot=              5.8968
 Quadrupole moment (field-independent basis, Debye-Ang):
   XX=            -18.0804   YY=            -46.8390   ZZ=            -58.5378
   XY=             -1.9313   XZ=             -3.2319   YZ=              0.4314

 Normal termination of Gaussian 16 at Sun Jul 18 14:37:51 2021.
