 Gaussian 16, Revision A.03,

 ---------------------------------------------------------------
 #p b3lyp/6-31G(d) opt freq scrf=(iefpcm,read,solvent=n-octanol)
 ---------------------------------------------------------------

 ---------------------------------------------
 SET_328_BBB268_conf1.geo_075_060_300 geometry
 ---------------------------------------------
 Symbolic Z-matrix:
 Charge =  1 Multiplicity = 1

 SCF Done:  E(RB3LYP) =  -976.581874386     A.U. after   14 cycles
 SCF Done:  E(RB3LYP) =  -976.630538656     A.U. after   12 cycles
 SCF Done:  E(RB3LYP) =  -976.643015958     A.U. after   12 cycles
 SCF Done:  E(RB3LYP) =  -976.660970815     A.U. after   12 cycles
 SCF Done:  E(RB3LYP) =  -976.660082832     A.U. after   12 cycles
 SCF Done:  E(RB3LYP) =  -976.663121760     A.U. after   11 cycles
 SCF Done:  E(RB3LYP) =  -976.661139860     A.U. after   13 cycles
 SCF Done:  E(RB3LYP) =  -976.663441203     A.U. after   10 cycles
 SCF Done:  E(RB3LYP) =  -976.662362743     A.U. after   11 cycles
 SCF Done:  E(RB3LYP) =  -976.663403964     A.U. after   11 cycles
 SCF Done:  E(RB3LYP) =  -976.665308135     A.U. after    9 cycles
 SCF Done:  E(RB3LYP) =  -976.665314131     A.U. after    9 cycles
 SCF Done:  E(RB3LYP) =  -976.665313588     A.U. after    7 cycles
 SCF Done:  E(RB3LYP) =  -976.665313217     A.U. after    7 cycles
 SCF Done:  E(RB3LYP) =  -976.665312988     A.U. after    6 cycles
 SCF Done:  E(RB3LYP) =  -976.665312862     A.U. after    6 cycles
 Optimization completed.
    -- Stationary point found.
 Normal termination of Gaussian 16 at Sun Jul 18 19:16:20 2021.

 --------------------------------------------------------------------
 #P Geom=AllCheck Guess=TCheck SCRF=Check GenChk RB3LYP/6-31G(d) Freq
 --------------------------------------------------------------------

 Structure from the checkpoint file:  "SET_328_BBB268_conf1.geo_075_060_300.chk"
 ---------------------------------------------
 SET_328_BBB268_conf1.geo_075_060_300 geometry
 ---------------------------------------------
 Charge =  1 Multiplicity = 1

 SCF Done:  E(RB3LYP) =  -976.665312861     A.U. after    1 cycles

  Exact polarizability: 429.413 -20.359 224.780   9.929  35.112 198.938
 Approx polarizability: 489.786 -18.444 273.888  19.086  59.344 271.785

                      1                      2                      3
                      A                      A                      A
 Frequencies --     16.7521                36.6201                41.0834
 Red. masses --      3.9086                 2.6929                 1.3350
 Frc consts  --      0.0006                 0.0021                 0.0013
 IR Inten    --      4.3502                 0.6414                 0.7578

                      4                      5                      6
                      A                      A                      A
 Frequencies --     49.0761                57.0379                65.2832
 Red. masses --      2.8919                 2.9472                 2.8160
 Frc consts  --      0.0041                 0.0056                 0.0071
 IR Inten    --      0.2150                 0.5340                 0.7632

                      7                      8                      9
                      A                      A                      A
 Frequencies --     71.7710                92.3391               102.6991
 Red. masses --      2.4355                 1.1639                 1.8926
 Frc consts  --      0.0074                 0.0058                 0.0118
 IR Inten    --      0.7579                 1.2936                 5.0800

                     10                     11                     12
                      A                      A                      A
 Frequencies --    113.0983               127.9431               137.3040
 Red. masses --      2.3811                 1.4992                 2.1839
 Frc consts  --      0.0179                 0.0145                 0.0243
 IR Inten    --      0.7950                 0.6174                 2.3870

                     13                     14                     15
                      A                      A                      A
 Frequencies --    151.6275               183.0859               203.8490
 Red. masses --      4.0531                 3.7575                 4.6525
 Frc consts  --      0.0549                 0.0742                 0.1139
 IR Inten    --      1.3490                 2.3388                 2.6998

                     16                     17                     18
                      A                      A                      A
 Frequencies --    234.7809               243.7312               261.7491
 Red. masses --      3.1649                 3.8399                 4.3357
 Frc consts  --      0.1028                 0.1344                 0.1750
 IR Inten    --      2.2544                 2.7998                 9.4556

                     19                     20                     21
                      A                      A                      A
 Frequencies --    296.5145               323.3032               350.9089
 Red. masses --      4.0316                 3.0976                 3.9157
 Frc consts  --      0.2088                 0.1908                 0.2841
 IR Inten    --      0.0419                 0.5466                 4.8992

                     22                     23                     24
                      A                      A                      A
 Frequencies --    357.9292               377.7033               397.0267
 Red. masses --      3.1856                 3.4555                 3.8455
 Frc consts  --      0.2405                 0.2904                 0.3571
 IR Inten    --      4.4605                 4.5130                 6.6202

                     25                     26                     27
                      A                      A                      A
 Frequencies --    418.9273               421.6533               459.3769
 Red. masses --      2.7890                 2.9226                 2.5911
 Frc consts  --      0.2884                 0.3062                 0.3222
 IR Inten    --      3.0081                 0.2811                 9.9962

                     28                     29                     30
                      A                      A                      A
 Frequencies --    468.4774               497.0663               518.0383
 Red. masses --      3.7068                 4.9449                 3.2636
 Frc consts  --      0.4793                 0.7198                 0.5160
 IR Inten    --      1.9143                 4.0145                 7.4044

                     31                     32                     33
                      A                      A                      A
 Frequencies --    546.5572               573.9056               582.0449
 Red. masses --      5.7937                 3.5096                 1.9765
 Frc consts  --      1.0197                 0.6811                 0.3945
 IR Inten    --      9.0696                10.9102                61.7894

                     34                     35                     36
                      A                      A                      A
 Frequencies --    597.7617               601.8430               634.6960
 Red. masses --      2.1405                 2.7066                 4.4547
 Frc consts  --      0.4506                 0.5776                 1.0573
 IR Inten    --     42.1181                87.4189                 9.0064

                     37                     38                     39
                      A                      A                      A
 Frequencies --    650.6195               680.6750               709.6346
 Red. masses --      6.6408                 5.7548                 6.1791
 Frc consts  --      1.6563                 1.5709                 1.8334
 IR Inten    --      0.1467                 1.4759                 0.0563

                     40                     41                     42
                      A                      A                      A
 Frequencies --    734.7814               744.4129               756.8278
 Red. masses --      3.7310                 3.5229                 6.0975
 Frc consts  --      1.1868                 1.1502                 2.0578
 IR Inten    --      2.8100                 1.7768                 4.0654

                     43                     44                     45
                      A                      A                      A
 Frequencies --    792.3122               815.6398               833.0294
 Red. masses --      5.3042                 5.5983                 1.4077
 Frc consts  --      1.9618                 2.1943                 0.5755
 IR Inten    --      2.9221                 4.4740                58.3985

                     46                     47                     48
                      A                      A                      A
 Frequencies --    837.8489               852.1794               859.3739
 Red. masses --      1.5511                 4.8093                 1.2876
 Frc consts  --      0.6415                 2.0578                 0.5602
 IR Inten    --     25.0271                 3.7457                 7.1148

                     49                     50                     51
                      A                      A                      A
 Frequencies --    871.0270               922.7441               942.3840
 Red. masses --      3.7777                 1.2776                 2.9494
 Frc consts  --      1.6887                 0.6409                 1.5433
 IR Inten    --      0.9812                30.1124                 2.1543

                     52                     53                     54
                      A                      A                      A
 Frequencies --    969.5722               978.7670               984.8374
 Red. masses --      1.3201                 2.2975                 1.4886
 Frc consts  --      0.7312                 1.2968                 0.8507
 IR Inten    --      0.9027                 1.3848                 1.6340

                     55                     56                     57
                      A                      A                      A
 Frequencies --    997.5550              1001.0634              1015.6605
 Red. masses --      1.3185                 2.3941                 1.4642
 Frc consts  --      0.7730                 1.4136                 0.8899
 IR Inten    --      4.5699                13.7861                 4.6255

                     58                     59                     60
                      A                      A                      A
 Frequencies --   1032.6821              1044.5056              1074.1262
 Red. masses --      1.9784                 2.2847                 1.5474
 Frc consts  --      1.2431                 1.4686                 1.0519
 IR Inten    --      4.3399                36.0729                 7.5632

                     61                     62                     63
                      A                      A                      A
 Frequencies --   1077.8109              1086.9655              1090.8300
 Red. masses --      1.5454                 1.9751                 1.6363
 Frc consts  --      1.0577                 1.3749                 1.1472
 IR Inten    --     14.3595                14.7947                 7.8164

                     64                     65                     66
                      A                      A                      A
 Frequencies --   1136.1815              1145.4455              1152.8505
 Red. masses --      1.2258                 1.6827                 1.3755
 Frc consts  --      0.9323                 1.3008                 1.0771
 IR Inten    --      1.1519                51.5023                31.4356

                     67                     68                     69
                      A                      A                      A
 Frequencies --   1174.3374              1182.1454              1193.2563
 Red. masses --      1.2636                 1.3747                 2.9626
 Frc consts  --      1.0267                 1.1319                 2.4854
 IR Inten    --      8.8349                 3.2066                38.2015

                     70                     71                     72
                      A                      A                      A
 Frequencies --   1219.7619              1236.5462              1243.9993
 Red. masses --      1.1461                 2.9375                 3.0238
 Frc consts  --      1.0047                 2.6464                 2.7570
 IR Inten    --     19.2472                44.9601                 3.7776

                     73                     74                     75
                      A                      A                      A
 Frequencies --   1257.3151              1285.0887              1309.5398
 Red. masses --      1.8296                 4.4953                 2.6082
 Frc consts  --      1.7041                 4.3740                 2.6353
 IR Inten    --      2.6218                72.8941                 0.9126

                     76                     77                     78
                      A                      A                      A
 Frequencies --   1324.3662              1332.9797              1342.8836
 Red. masses --      1.5768                 1.6864                 2.7531
 Frc consts  --      1.6294                 1.7655                 2.9252
 IR Inten    --      5.7714                 4.3696                11.8058

                     79                     80                     81
                      A                      A                      A
 Frequencies --   1347.4179              1353.4548              1394.9251
 Red. masses --      2.6350                 1.6249                 3.4917
 Frc consts  --      2.8186                 1.7537                 4.0030
 IR Inten    --      6.5828                 2.7376                13.4078

                     82                     83                     84
                      A                      A                      A
 Frequencies --   1410.1800              1436.2157              1439.4102
 Red. masses --      3.8823                 1.2589                 1.3003
 Frc consts  --      4.5487                 1.5299                 1.5873
 IR Inten    --     14.2663                 0.3899                 1.3126

                     85                     86                     87
                      A                      A                      A
 Frequencies --   1443.3527              1447.8793              1456.1396
 Red. masses --      2.7835                 1.2043                 2.6465
 Frc consts  --      3.4165                 1.4875                 3.3062
 IR Inten    --     29.8188                20.1701                14.6679

                     88                     89                     90
                      A                      A                      A
 Frequencies --   1461.3827              1484.4154              1503.9802
 Red. masses --      2.1130                 1.1861                 1.1857
 Frc consts  --      2.6587                 1.5398                 1.5802
 IR Inten    --    126.6990                29.9189                34.9384

                     91                     92                     93
                      A                      A                      A
 Frequencies --   1504.9485              1506.5626              1508.8805
 Red. masses --      1.2495                 1.0815                 1.0506
 Frc consts  --      1.6674                 1.4463                 1.4093
 IR Inten    --     41.6306                14.2293                 8.6037

                     94                     95                     96
                      A                      A                      A
 Frequencies --   1511.9170              1514.5948              1517.1303
 Red. masses --      1.1233                 1.0698                 1.4776
 Frc consts  --      1.5129                 1.4459                 2.0039
 IR Inten    --     19.5654                 6.3673                 6.3894

                     97                     98                     99
                      A                      A                      A
 Frequencies --   1521.3358              1536.4894              1558.6958
 Red. masses --      1.0457                 1.1386                 2.7529
 Frc consts  --      1.4260                 1.5838                 3.9406
 IR Inten    --     17.1313                 6.8784                72.8460

                    100                    101                    102
                      A                      A                      A
 Frequencies --   1566.9657              1578.2752              1614.1530
 Red. masses --      1.3102                 4.2049                 5.4053
 Frc consts  --      1.8955                 6.1712                 8.2978
 IR Inten    --     58.3240               124.6024                11.9920

                    103                    104                    105
                      A                      A                      A
 Frequencies --   1621.2294              1658.8555              1670.9556
 Red. masses --      5.3166                 5.9158                 5.8343
 Frc consts  --      8.2332                 9.5914                 9.5978
 IR Inten    --     15.3584                36.7588                50.3348

                    106                    107                    108
                      A                      A                      A
 Frequencies --   1715.0797              1723.6046              3066.2775
 Red. masses --      7.0282                 6.4513                 1.0365
 Frc consts  --     12.1804                11.2921                 5.7415
 IR Inten    --    139.4234               454.7139                35.1814

                    109                    110                    111
                      A                      A                      A
 Frequencies --   3066.5052              3074.3666              3077.7845
 Red. masses --      1.0376                 1.0395                 1.0374
 Frc consts  --      5.7484                 5.7888                 5.7899
 IR Inten    --     34.0323                75.8429                24.8949

                    112                    113                    114
                      A                      A                      A
 Frequencies --   3099.8666              3121.9938              3124.2263
 Red. masses --      1.0680                 1.1050                 1.1011
 Frc consts  --      6.0463                 6.3458                 6.3326
 IR Inten    --      6.3205                55.4633                17.4236

                    115                    116                    117
                      A                      A                      A
 Frequencies --   3125.4035              3136.4130              3146.3311
 Red. masses --      1.1057                 1.1017                 1.1028
 Frc consts  --      6.3637                 6.3854                 6.4324
 IR Inten    --      4.0019                11.6387                21.5678

                    118                    119                    120
                      A                      A                      A
 Frequencies --   3168.3702              3170.2669              3204.4808
 Red. masses --      1.1022                 1.0961                 1.0881
 Frc consts  --      6.5189                 6.4908                 6.5832
 IR Inten    --     13.3653                 4.1525                15.6459

                    121                    122                    123
                      A                      A                      A
 Frequencies --   3211.8184              3216.0271              3220.8673
 Red. masses --      1.0878                 1.0983                 1.0942
 Frc consts  --      6.6118                 6.6928                 6.6880
 IR Inten    --     15.7495                 1.4897                13.3956

                    124                    125                    126
                      A                      A                      A
 Frequencies --   3222.6849              3227.7208              3237.0488
 Red. masses --      1.0952                 1.0939                 1.0905
 Frc consts  --      6.7017                 6.7148                 6.7324
 IR Inten    --      9.8490                10.3682                 4.3161

                    127                    128                    129
                      A                      A                      A
 Frequencies --   3243.2287              3259.7217              3585.3403
 Red. masses --      1.0965                 1.0955                 1.0825
 Frc consts  --      6.7957                 6.8582                 8.1988
 IR Inten    --     91.8152                 0.3658               378.1912

 - Thermochemistry -
 -------------------
 Temperature   298.150 Kelvin.  Pressure   1.00000 Atm.
 Atom     1 has atomic number  6 and mass  12.00000

 Molecular mass:   308.17629 amu.
 Principal axes and moments of inertia in atomic units:
                           1         2         3
     Eigenvalues --  4613.79396********************
           X            0.99999  -0.00431   0.00026
           Y            0.00431   0.99995  -0.00858
           Z           -0.00023   0.00859   0.99996
 This molecule is an asymmetric top.
 Rotational symmetry number  1.
 Warning -- assumption of classical behavior for rotation
           may cause significant error
 Rotational temperatures (Kelvin)      0.01877     0.00808     0.00620
 Rotational constants (GHZ):           0.39116     0.16831     0.12929
 Zero-point vibrational energy    1002011.8 (Joules/Mol)
                                  239.48658 (Kcal/Mol)
 Warning -- explicit consideration of  35 degrees of freedom as
           vibrations may cause significant error
 Vibrational temperatures:     24.10    52.69    59.11    70.61    82.06
          (Kelvin)             93.93   103.26   132.86   147.76   162.72
                              184.08   197.55   218.16   263.42   293.29
                              337.80   350.67   376.60   426.62   465.16
                              504.88   514.98   543.43   571.23   602.74
                              606.67   660.94   674.03   715.17   745.34
                              786.37   825.72   837.43   860.05   865.92
                              913.19   936.10   979.34  1021.01  1057.19
                             1071.04  1088.91  1139.96  1173.52  1198.54
                             1205.48  1226.10  1236.45  1253.21  1327.62
                             1355.88  1395.00  1408.23  1416.96  1435.26
                             1440.31  1461.31  1485.80  1502.81  1545.43
                             1550.73  1563.90  1569.46  1634.71  1648.04
                             1658.69  1689.61  1700.84  1716.83  1754.97
                             1779.11  1789.84  1809.00  1848.96  1884.14
                             1905.47  1917.86  1932.11  1938.63  1947.32
                             2006.99  2028.93  2066.39  2070.99  2076.66
                             2083.18  2095.06  2102.60  2135.74  2163.89
                             2165.29  2167.61  2170.94  2175.31  2179.16
                             2182.81  2188.86  2210.67  2242.62  2254.51
                             2270.79  2322.41  2332.59  2386.72  2404.13
                             2467.62  2479.88  4411.69  4412.02  4423.33
                             4428.25  4460.02  4491.85  4495.06  4496.76
                             4512.60  4526.87  4558.58  4561.31  4610.53
                             4621.09  4627.15  4634.11  4636.72  4643.97
                             4657.39  4666.28  4690.01  5158.51

 Zero-point correction=                           0.381646 (Hartree/Particle)
 Thermal correction to Energy=                    0.403834
 Thermal correction to Enthalpy=                  0.404779
 Thermal correction to Gibbs Free Energy=         0.328105
 Sum of electronic and zero-point Energies=           -976.283667
 Sum of electronic and thermal Energies=              -976.261478
 Sum of electronic and thermal Enthalpies=            -976.260534
 Sum of electronic and thermal Free Energies=         -976.337208

                     E (Thermal)             CV                S
                      KCal/Mol        Cal/Mol-Kelvin    Cal/Mol-Kelvin
 Total                  253.410             83.154            161.373
 Electronic               0.000              0.000              0.000
 Translational            0.889              2.981             43.073
 Rotational               0.889              2.981             34.889
 Vibrational            251.632             77.193             83.411
 Vibration     1          0.593              1.986              6.986
 Vibration     2          0.594              1.982              5.434
 Vibration     3          0.594              1.981              5.206
 Vibration     4          0.595              1.978              4.854
 Vibration     5          0.596              1.975              4.557
 Vibration     6          0.597              1.971              4.291
 Vibration     7          0.598              1.967              4.104
 Vibration     8          0.602              1.955              3.610
 Vibration     9          0.605              1.947              3.402
 Vibration    10          0.607              1.939              3.215
 Vibration    11          0.611              1.925              2.977
 Vibration    12          0.614              1.916              2.841
 Vibration    13          0.619              1.901              2.652
 Vibration    14          0.631              1.863              2.297
 Vibration    15          0.640              1.834              2.098
 Vibration    16          0.655              1.788              1.842
 Vibration    17          0.659              1.773              1.775
 Vibration    18          0.669              1.743              1.650
 Vibration    19          0.690              1.680              1.436
 Vibration    20          0.708              1.629              1.293
 Vibration    21          0.728              1.573              1.162
 Vibration    22          0.733              1.559              1.131
 Vibration    23          0.748              1.518              1.048
 Vibration    24          0.764              1.477              0.974
 Vibration    25          0.782              1.429              0.896
 Vibration    26          0.784              1.423              0.886
 Vibration    27          0.817              1.340              0.768
 Vibration    28          0.826              1.320              0.742
 Vibration    29          0.853              1.257              0.665
 Vibration    30          0.873              1.210              0.615
 Vibration    31          0.902              1.147              0.551
 Vibration    32          0.930              1.088              0.497
 Vibration    33          0.939              1.070              0.482
 Vibration    34          0.956              1.037              0.454
 Vibration    35          0.960              1.028              0.446

                           ! Non-Optimized Parameters !
 Normal termination of Gaussian 16 at Sun Jul 18 20:30:10 2021.

 ----------------------------------------------------------------------
 #p b3lyp/6-31G(d) scrf=(iefpcm,read,solvent=n-octanol) geom=allcheck g
 uess=read
 ----------------------------------------------------------------------

 Structure from the checkpoint file:  "SET_328_BBB268_conf1.geo_075_060_300.chk"
 ---------------------------------------------
 SET_328_BBB268_conf1.geo_075_060_300 geometry
 ---------------------------------------------
 Charge =  1 Multiplicity = 1

 SCF Done:  E(RB3LYP) =  -976.665312861     A.U. after    1 cycles
 Normal termination of Gaussian 16 at Sun Jul 18 20:31:55 2021.

 -----------------------------
 #p B3LYP/6-31G* geom=allcheck
 -----------------------------

 Structure from the checkpoint file:  "SET_328_BBB268_conf1.geo_075_060_300.chk"
 ---------------------------------------------
 SET_328_BBB268_conf1.geo_075_060_300 geometry
 ---------------------------------------------
 Charge =  1 Multiplicity = 1

 SCF Done:  E(RB3LYP) =  -976.587777008     A.U. after   16 cycles

 The electronic state is 1-A.
 Alpha  occ. eigenvalues --  -19.21893 -14.57400 -14.55001 -14.47681 -10.42782
 Alpha  occ. eigenvalues --  -10.39923 -10.38725 -10.37914 -10.36816 -10.35079
 Alpha  occ. eigenvalues --  -10.34564 -10.34348 -10.33195 -10.32961 -10.32525
 Alpha  occ. eigenvalues --  -10.31431 -10.31316 -10.31228 -10.30477 -10.30153
 Alpha  occ. eigenvalues --  -10.30142 -10.29742 -10.27695  -1.20832  -1.13978
 Alpha  occ. eigenvalues --   -1.09721  -1.04027  -0.99559  -0.97846  -0.93757
 Alpha  occ. eigenvalues --   -0.91739  -0.89418  -0.87115  -0.86313  -0.84205
 Alpha  occ. eigenvalues --   -0.82534  -0.80698  -0.79892  -0.77894  -0.76713
 Alpha  occ. eigenvalues --   -0.74590  -0.72567  -0.70479  -0.69451  -0.66638
 Alpha  occ. eigenvalues --   -0.65128  -0.63689  -0.63124  -0.63004  -0.60786
 Alpha  occ. eigenvalues --   -0.60296  -0.59133  -0.58655  -0.58021  -0.57567
 Alpha  occ. eigenvalues --   -0.57172  -0.55877  -0.53982  -0.53784  -0.53216
 Alpha  occ. eigenvalues --   -0.52671  -0.52392  -0.51870  -0.51092  -0.50866
 Alpha  occ. eigenvalues --   -0.50517  -0.50410  -0.50228  -0.49200  -0.48494
 Alpha  occ. eigenvalues --   -0.47901  -0.47210  -0.46637  -0.45954  -0.45750
 Alpha  occ. eigenvalues --   -0.45238  -0.39791  -0.37577  -0.36878  -0.36085
 Alpha  occ. eigenvalues --   -0.34747  -0.34228
 Alpha virt. eigenvalues --   -0.18318  -0.14876  -0.13288  -0.12087  -0.09244
 Alpha virt. eigenvalues --   -0.07563  -0.05400  -0.02495  -0.01581  -0.01120
 Alpha virt. eigenvalues --   -0.00230   0.00943   0.01277   0.01573   0.02404

 Mulliken charges:
               1
     1  C   -0.334911
     2  H    0.169434
     3  H    0.218850
     4  H    0.178509
     5  N   -0.400481
     6  C   -0.330569
     7  H    0.176661
     8  H    0.186298
     9  H    0.171438
    10  C    0.604455
    11  O   -0.515569
    12  C   -0.463186
    13  H    0.197180
    14  H    0.214778
    15  C    0.301468
    16  C    0.208085
    17  C    0.080778
    18  C   -0.173446
    19  C   -0.180219
    20  C    0.183105
    21  C   -0.536107
    22  H    0.175246
    23  H    0.185899
    24  H    0.186601
    25  C   -0.177870
    26  C   -0.172685
    27  H    0.158568
    28  H    0.160622
    29  H    0.158838
    30  H    0.144260
    31  N   -0.730461
    32  C    0.636516
    33  C   -0.169462
    34  H    0.192375
    35  C   -0.129849
    36  H    0.190048
    37  C    0.102126
    38  C   -0.537068
    39  H    0.194948
    40  H    0.194582
    41  H    0.194461
    42  C    0.026350
    43  H    0.258657
    44  N   -0.573465
    45  H    0.374216
 Sum of Mulliken charges =   1.00000

 Dipole moment (field-independent basis, Debye):
    X=              0.1481    Y=             -4.4573    Z=             -1.9479  Tot=              4.8666
 Quadrupole moment (field-independent basis, Debye-Ang):
   XX=            -73.5707   YY=           -102.9821   ZZ=           -123.1101
   XY=            -15.1889   XZ=             -2.8364   YZ=              2.7883

 Normal termination of Gaussian 16 at Sun Jul 18 20:36:08 2021.
 Gaussian 16:  ES64L-G16RevA.03 25-Dec-2016

 --------------------------------------------------------
 #p mp2/aug-cc-pVDZ scf=tight maxdisk=180GB geom=allcheck
 --------------------------------------------------------

 Structure from the checkpoint file:  "SET_328_BBB268_conf1.geo_075_060_300.chk"
 ---------------------------------------------
 SET_328_BBB268_conf1.geo_075_060_300 geometry
 ---------------------------------------------
 Charge =  1 Multiplicity = 1

                         Standard orientation:
 ---------------------------------------------------------------------
 Center     Atomic      Atomic             Coordinates (Angstroms)
 Number     Number       Type             X           Y           Z
 ---------------------------------------------------------------------
      1          6           0        1.116946    4.098054   -1.196750
      2          1           0        1.165755    3.885742   -2.269460
      3          1           0        2.121771    4.187644   -0.792855
      4          1           0        0.572846    5.036266   -1.051744
      5          7           0        0.434196    3.012380   -0.500659
      6          6           0       -0.937910    2.772305   -0.928797
      7          1           0       -0.956590    2.537732   -1.997280
      8          1           0       -1.543495    3.668667   -0.763740
      9          1           0       -1.387028    1.943512   -0.388995
     10          6           0        1.109935    2.323120    0.452393
     11          8           0        2.285334    2.568640    0.745476
     12          6           0        0.396664    1.176717    1.197817
     13          1           0       -0.653747    1.392559    1.386331
     14          1           0        0.891193    1.126242    2.172017
     15          6           0        0.481146   -0.149053    0.512066
     16          6           0       -0.506180   -0.986262    0.045152
     17          6           0       -1.966586   -0.850503    0.081453
     18          6           0       -2.741247   -1.159688   -1.046287
     19          6           0       -4.126959   -1.035161   -1.002897
     20          6           0       -4.782796   -0.596768    0.153754
     21          6           0       -6.284329   -0.456133    0.189670
     22          1           0       -6.735729   -0.802202   -0.743689
     23          1           0       -6.578880    0.587067    0.340442
     24          1           0       -6.717355   -1.033195    1.012840
     25          6           0       -4.002022   -0.289863    1.278525
     26          6           0       -2.617023   -0.416534    1.249365
     27          1           0       -2.039251   -0.207561    2.143337
     28          1           0       -4.485052    0.040210    2.192981
     29          1           0       -4.710905   -1.275467   -1.885035
     30          1           0       -2.260278   -1.477521   -1.965098
     31          7           0        0.114075   -2.086448   -0.522472
     32          6           0        1.454165   -1.975363   -0.402399
     33          6           0        2.505330   -2.818003   -0.778174
     34          1           0        2.292900   -3.755154   -1.275166
     35          6           0        3.786868   -2.408062   -0.489749
     36          1           0        4.622076   -3.040070   -0.767615
     37          6           0        4.044510   -1.168065    0.157785
     38          6           0        5.451047   -0.729666    0.455566
     39          1           0        5.946465   -1.437795    1.125314
     40          1           0        5.464149    0.252591    0.929501
     41          1           0        6.046587   -0.675419   -0.460408
     42          6           0        2.985339   -0.368461    0.502850
     43          1           0        3.073159    0.614194    0.949625
     44          7           0        1.701618   -0.781004    0.229613
     45          1           0       -0.361883   -2.907317   -0.888546
 ---------------------------------------------------------------------

 SCF Done:  E(RHF) =  -970.470196653     A.U. after   17 cycles
