 Gaussian 16, Revision A.03,

 ---------------------------------------------------------------
 #p b3lyp/6-31G(d) opt freq scrf=(iefpcm,read,solvent=n-octanol)
 ---------------------------------------------------------------

 ---------------------------------------------
 SET_328_BBB292_conf1.geo_105_165_120 geometry
 ---------------------------------------------
 Symbolic Z-matrix:
 Charge =  1 Multiplicity = 1

 SCF Done:  E(RB3LYP) =  -705.606917667     A.U. after   13 cycles
 SCF Done:  E(RB3LYP) =  -705.660206631     A.U. after   12 cycles
 SCF Done:  E(RB3LYP) =  -705.665677892     A.U. after   13 cycles
 SCF Done:  E(RB3LYP) =  -705.692054573     A.U. after   13 cycles
 SCF Done:  E(RB3LYP) =  -705.694695756     A.U. after   11 cycles
 SCF Done:  E(RB3LYP) =  -705.696334780     A.U. after   11 cycles
 SCF Done:  E(RB3LYP) =  -705.697519804     A.U. after   11 cycles
 SCF Done:  E(RB3LYP) =  -705.697208256     A.U. after   11 cycles
 SCF Done:  E(RB3LYP) =  -705.697643467     A.U. after   10 cycles
 SCF Done:  E(RB3LYP) =  -705.697677753     A.U. after   11 cycles
 SCF Done:  E(RB3LYP) =  -705.697946999     A.U. after   10 cycles
 SCF Done:  E(RB3LYP) =  -705.697948260     A.U. after    9 cycles
 SCF Done:  E(RB3LYP) =  -705.697961695     A.U. after    9 cycles
 SCF Done:  E(RB3LYP) =  -705.697963924     A.U. after    8 cycles
 SCF Done:  E(RB3LYP) =  -705.697965694     A.U. after    8 cycles
 SCF Done:  E(RB3LYP) =  -705.697966838     A.U. after    8 cycles
 Optimization completed.
    -- Stationary point found.
 Normal termination of Gaussian 16 at Sun Jul 18 14:23:51 2021.

 --------------------------------------------------------------------
 #P Geom=AllCheck Guess=TCheck SCRF=Check GenChk RB3LYP/6-31G(d) Freq
 --------------------------------------------------------------------

 Structure from the checkpoint file:  "SET_328_BBB292_conf1.geo_105_165_120.chk"
 ---------------------------------------------
 SET_328_BBB292_conf1.geo_105_165_120 geometry
 ---------------------------------------------
 Charge =  1 Multiplicity = 1

 SCF Done:  E(RB3LYP) =  -705.697966838     A.U. after    1 cycles

  Exact polarizability: 176.984  -4.907 136.949 -10.901 -11.498  83.497
 Approx polarizability: 211.058  -9.528 185.379 -18.324 -15.899 109.653

                      1                      2                      3
                      A                      A                      A
 Frequencies --     49.7580                53.9523                87.8474
 Red. masses --      5.7533                 6.6293                 6.0029
 Frc consts  --      0.0084                 0.0114                 0.0273
 IR Inten    --     12.3399                23.1248                 5.2075

                      4                      5                      6
                      A                      A                      A
 Frequencies --    143.0339               169.1422               202.0429
 Red. masses --      4.9331                 5.6648                 8.9693
 Frc consts  --      0.0595                 0.0955                 0.2157
 IR Inten    --     19.9137                36.9527                11.2991

                      7                      8                      9
                      A                      A                      A
 Frequencies --    226.8104               252.9184               294.2277
 Red. masses --      1.1324                 4.5803                 3.0188
 Frc consts  --      0.0343                 0.1726                 0.1540
 IR Inten    --    197.1344                22.4362                 2.3173

                     10                     11                     12
                      A                      A                      A
 Frequencies --    316.8918               359.8771               364.9930
 Red. masses --      4.8161                 3.8983                 5.2832
 Frc consts  --      0.2849                 0.2975                 0.4147
 IR Inten    --     10.3476                13.0965                17.4751

                     13                     14                     15
                      A                      A                      A
 Frequencies --    434.3526               437.6358               453.9962
 Red. masses --      1.1867                 2.4770                 3.3651
 Frc consts  --      0.1319                 0.2795                 0.4087
 IR Inten    --     68.0042                40.9234                19.1751

                     16                     17                     18
                      A                      A                      A
 Frequencies --    464.1852               481.2049               518.4345
 Red. masses --      2.7316                 1.7464                 2.6845
 Frc consts  --      0.3468                 0.2383                 0.4251
 IR Inten    --      2.9627                54.7981                35.1511

                     19                     20                     21
                      A                      A                      A
 Frequencies --    545.9324               587.7215               596.0220
 Red. masses --      4.5887                 2.5117                 5.1216
 Frc consts  --      0.8058                 0.5112                 1.0720
 IR Inten    --      6.5915                13.5381                22.3963

                     22                     23                     24
                      A                      A                      A
 Frequencies --    608.9724               654.4148               706.2751
 Red. masses --      1.4006                 3.6006                 5.4177
 Frc consts  --      0.3060                 0.9085                 1.5922
 IR Inten    --     24.7954                15.9930                 1.3695

                     25                     26                     27
                      A                      A                      A
 Frequencies --    717.1133               774.8626               804.6105
 Red. masses --      4.8805                 6.1727                 4.7023
 Frc consts  --      1.4787                 2.1836                 1.7936
 IR Inten    --      9.4400                 4.4462                18.8416

                     28                     29                     30
                      A                      A                      A
 Frequencies --    828.6355               841.6114               868.5413
 Red. masses --      1.6619                 1.5083                 2.0052
 Frc consts  --      0.6723                 0.6294                 0.8912
 IR Inten    --     39.1673                 4.5581                20.6781

                     31                     32                     33
                      A                      A                      A
 Frequencies --    905.0292               944.0647               952.3325
 Red. masses --      2.6397                 1.3564                 2.6011
 Frc consts  --      1.2739                 0.7123                 1.3899
 IR Inten    --     11.4975                 3.7010                27.6373

                     34                     35                     36
                      A                      A                      A
 Frequencies --   1001.3794              1076.4022              1121.7292
 Red. masses --      1.9291                 3.9453                 1.4586
 Frc consts  --      1.1398                 2.6933                 1.0814
 IR Inten    --     10.0867                36.6126                34.1617

                     37                     38                     39
                      A                      A                      A
 Frequencies --   1137.8104              1170.4659              1183.0175
 Red. masses --      1.6087                 1.4531                 1.3718
 Frc consts  --      1.2270                 1.1729                 1.1312
 IR Inten    --    144.1511               150.6831               160.8451

                     40                     41                     42
                      A                      A                      A
 Frequencies --   1192.5648              1223.9102              1236.0728
 Red. masses --      1.4101                 1.3954                 1.5399
 Frc consts  --      1.1816                 1.2316                 1.3862
 IR Inten    --      9.4022               110.8527                17.1928

                     43                     44                     45
                      A                      A                      A
 Frequencies --   1278.0041              1299.9168              1312.4987
 Red. masses --      1.5107                 2.3639                 1.5827
 Frc consts  --      1.4538                 2.3535                 1.6063
 IR Inten    --    208.3026               100.7076               236.9478

                     46                     47                     48
                      A                      A                      A
 Frequencies --   1321.8828              1340.3718              1371.1404
 Red. masses --      2.1105                 2.3999                 1.9199
 Frc consts  --      2.1728                 2.5404                 2.1267
 IR Inten    --    222.3088               270.7848                75.5617

                     49                     50                     51
                      A                      A                      A
 Frequencies --   1393.4139              1428.9660              1430.6761
 Red. masses --      1.6253                 1.6067                 1.8438
 Frc consts  --      1.8593                 1.9330                 2.2235
 IR Inten    --     11.5433                54.9012                23.0933

                     52                     53                     54
                      A                      A                      A
 Frequencies --   1494.9298              1530.3271              1576.3277
 Red. masses --      3.6539                 1.0865                 3.3410
 Frc consts  --      4.8112                 1.4992                 4.8912
 IR Inten    --    127.0083                14.7030               155.3043

                     55                     56                     57
                      A                      A                      A
 Frequencies --   1606.4175              1666.1456              1672.9902
 Red. masses --      1.1423                 5.9905                 6.5978
 Frc consts  --      1.7368                 9.7981                10.8801
 IR Inten    --    250.0673                43.7493                29.8771

                     58                     59                     60
                      A                      A                      A
 Frequencies --   1685.2378              1768.9161              1855.4172
 Red. masses --      1.0447                 1.0416                 9.7733
 Frc consts  --      1.7482                 1.9204                19.8233
 IR Inten    --     93.4790               120.7203               287.6504

                     61                     62                     63
                      A                      A                      A
 Frequencies --   3079.1104              3133.3771              3147.5699
 Red. masses --      1.0684                 1.0853                 1.0974
 Frc consts  --      5.9683                 6.2782                 6.4054
 IR Inten    --     16.8279                 1.1991                 2.0168

                     64                     65                     66
                      A                      A                      A
 Frequencies --   3189.5525              3198.7503              3225.6118
 Red. masses --      1.0907                 1.0890                 1.0935
 Frc consts  --      6.5378                 6.5652                 6.7031
 IR Inten    --     17.2470                13.6721                10.1076

                     67                     68                     69
                      A                      A                      A
 Frequencies --   3352.6440              3403.3517              3450.0752
 Red. masses --      1.0391                 1.0923                 1.0889
 Frc consts  --      6.8815                 7.4541                 7.6365
 IR Inten    --    104.4020               253.1824               231.5014

                     70                     71                     72
                      A                      A                      A
 Frequencies --   3704.0556              3747.6728              3748.9406
 Red. masses --      1.0652                 1.0664                 1.0667
 Frc consts  --      8.6103                 8.8242                 8.8333
 IR Inten    --    169.3630               100.5600               165.5952

 - Thermochemistry -
 -------------------
 Temperature   298.150 Kelvin.  Pressure   1.00000 Atm.
 Atom     1 has atomic number  7 and mass  14.00307

 Molecular mass:   198.07663 amu.
 Principal axes and moments of inertia in atomic units:
                           1         2         3
     Eigenvalues --  1006.942236260.724776705.08957
           X            0.99997   0.00586   0.00585
           Y           -0.00583   0.99997  -0.00473
           Z           -0.00587   0.00470   0.99997
 This molecule is an asymmetric top.
 Rotational symmetry number  1.
 Warning -- assumption of classical behavior for rotation
           may cause significant error
 Rotational temperatures (Kelvin)      0.08602     0.01383     0.01292
 Rotational constants (GHZ):           1.79230     0.28826     0.26916
 Zero-point vibrational energy     564667.8 (Joules/Mol)
                                  134.95885 (Kcal/Mol)
 Warning -- explicit consideration of  22 degrees of freedom as
           vibrations may cause significant error
 Vibrational temperatures:     71.59    77.63   126.39   205.79   243.36
          (Kelvin)            290.69   326.33   363.89   423.33   455.94
                              517.78   525.14   624.94   629.66   653.20
                              667.86   692.35   745.91   785.47   845.60
                              857.54   876.18   941.56  1016.17  1031.77
                             1114.85  1157.66  1192.22  1210.89  1249.64
                             1302.14  1358.30  1370.19  1440.76  1548.70
                             1613.92  1637.06  1684.04  1702.10  1715.83
                             1760.93  1778.43  1838.76  1870.29  1888.39
                             1901.89  1928.50  1972.77  2004.81  2055.96
                             2058.42  2150.87  2201.80  2267.98  2311.28
                             2397.21  2407.06  2424.68  2545.08  2669.53
                             4430.15  4508.23  4528.65  4589.05  4602.29
                             4640.94  4823.71  4896.66  4963.89  5329.31
                             5392.07  5393.89

 Zero-point correction=                           0.215071 (Hartree/Particle)
 Thermal correction to Energy=                    0.228016
 Thermal correction to Enthalpy=                  0.228960
 Thermal correction to Gibbs Free Energy=         0.175522
 Sum of electronic and zero-point Energies=           -705.482896
 Sum of electronic and thermal Energies=              -705.469951
 Sum of electronic and thermal Enthalpies=            -705.469007
 Sum of electronic and thermal Free Energies=         -705.522445

                     E (Thermal)             CV                S
                      KCal/Mol        Cal/Mol-Kelvin    Cal/Mol-Kelvin
 Total                  143.082             50.446            112.469
 Electronic               0.000              0.000              0.000
 Translational            0.889              2.981             41.755
 Rotational               0.889              2.981             32.114
 Vibrational            141.304             44.484             38.600
 Vibration     1          0.595              1.978              4.827
 Vibration     2          0.596              1.976              4.667
 Vibration     3          0.601              1.958              3.707
 Vibration     4          0.616              1.910              2.763
 Vibration     5          0.625              1.880              2.445
 Vibration     6          0.639              1.837              2.114
 Vibration     7          0.650              1.800              1.904
 Vibration     8          0.664              1.758              1.710
 Vibration     9          0.689              1.684              1.450
 Vibration    10          0.704              1.641              1.326
 Vibration    11          0.734              1.555              1.123
 Vibration    12          0.738              1.544              1.101
 Vibration    13          0.795              1.395              0.845
 Vibration    14          0.798              1.388              0.834
 Vibration    15          0.812              1.352              0.784
 Vibration    16          0.822              1.329              0.754
 Vibration    17          0.838              1.292              0.707
 Vibration    18          0.873              1.209              0.614
 Vibration    19          0.901              1.149              0.553
 Vibration    20          0.945              1.058              0.471
 Vibration    21          0.954              1.040              0.457
 Vibration    22          0.968              1.013              0.434

 Optimization completed.
    -- Stationary point found.
 Normal termination of Gaussian 16 at Sun Jul 18 14:40:48 2021.

 ----------------------------------------------------------------------
 #p b3lyp/6-31G(d) scrf=(iefpcm,read,solvent=n-octanol) geom=allcheck g
 uess=read
 ----------------------------------------------------------------------

 Structure from the checkpoint file:  "SET_328_BBB292_conf1.geo_105_165_120.chk"
 ---------------------------------------------
 SET_328_BBB292_conf1.geo_105_165_120 geometry
 ---------------------------------------------
 Charge =  1 Multiplicity = 1

 SCF Done:  E(RB3LYP) =  -705.700177096     A.U. after    1 cycles
 Normal termination of Gaussian 16 at Sun Jul 18 14:41:11 2021.

 -----------------------------
 #p B3LYP/6-31G* geom=allcheck
 -----------------------------

 Structure from the checkpoint file:  "SET_328_BBB292_conf1.geo_105_165_120.chk"
 ---------------------------------------------
 SET_328_BBB292_conf1.geo_105_165_120 geometry
 ---------------------------------------------
 Charge =  1 Multiplicity = 1

 SCF Done:  E(RB3LYP) =  -705.553987701     A.U. after   15 cycles
 Normal termination of Gaussian 16 at Sun Jul 18 14:42:35 2021.
 Gaussian 16:  ES64L-G16RevA.03 25-Dec-2016

 --------------------------------------------------------
 #p mp2/aug-cc-pVDZ scf=tight maxdisk=180GB geom=allcheck
 --------------------------------------------------------

 Structure from the checkpoint file:  "SET_328_BBB292_conf1.geo_105_165_120.chk"
 ---------------------------------------------
 SET_328_BBB292_conf1.geo_105_165_120 geometry
 ---------------------------------------------
 Charge =  1 Multiplicity = 1

                         Standard orientation:
 ---------------------------------------------------------------------
 Center     Atomic      Atomic             Coordinates (Angstroms)
 Number     Number       Type             X           Y           Z
 ---------------------------------------------------------------------
      1          7           0        1.874603    1.228843    1.156829
      2          1           0        2.394875    1.252388    2.047281
      3          1           0        0.883765    1.312231    1.429391
      4          6           0        2.098627   -0.034481    0.364324
      5          6           0        3.550123   -0.244834   -0.104244
      6          8           0        4.537060    0.568098    0.302008
      7          1           0        4.257200    1.297201    0.883476
      8          8           0        3.793003   -1.176115   -0.831382
      9          1           0        1.883816   -0.850340    1.057117
     10          6           0        1.134709   -0.119554   -0.836183
     11          1           0        1.473321   -0.988890   -1.403429
     12          1           0        1.281111    0.752399   -1.481793
     13          6           0       -0.321869   -0.257131   -0.454524
     14          6           0       -1.215376    0.804499   -0.667129
     15          1           0       -0.862217    1.730745   -1.112098
     16          6           0       -2.555702    0.677304   -0.321146
     17          8           0       -3.507326    1.647642   -0.480202
     18          1           0       -3.146906    2.410248   -0.961244
     19          6           0       -3.030924   -0.516786    0.247250
     20          8           0       -4.342475   -0.636473    0.582896
     21          1           0       -4.786648    0.191248    0.327496
     22          6           0       -2.149880   -1.572743    0.456703
     23          1           0       -2.531866   -2.494018    0.882936
     24          6           0       -0.805785   -1.443800    0.107294
     25          1           0       -0.136927   -2.285290    0.260562
     26          1           0        2.102621    2.090115    0.631875
 ---------------------------------------------------------------------

 SCF Done:  E(RHF) =  -701.562465256     A.U. after   17 cycles
 E2 =    -0.2201748214D+01 EUMP2 =    -0.70376421347046D+03

 The electronic state is 1-A.
 Alpha  occ. eigenvalues --  -20.79884 -20.73048 -20.71795 -20.70321 -15.92284
 Alpha  occ. eigenvalues --  -11.56996 -11.51097 -11.43570 -11.42715 -11.41620
 Alpha  occ. eigenvalues --  -11.38844 -11.38287 -11.37176 -11.36414  -1.63635
 Alpha  occ. eigenvalues --   -1.54548  -1.53242  -1.53017  -1.50505  -1.29492
 Alpha  occ. eigenvalues --   -1.24266  -1.15878  -1.14323  -1.07072  -1.01279
 Alpha  occ. eigenvalues --   -0.99532  -0.99095  -0.97862  -0.94005  -0.91547
 Alpha  occ. eigenvalues --   -0.86970  -0.85878  -0.84577  -0.81504  -0.79951
 Alpha  occ. eigenvalues --   -0.79379  -0.76947  -0.74330  -0.73532  -0.73038
 Alpha  occ. eigenvalues --   -0.72436  -0.72108  -0.70420  -0.67637  -0.67003
 Alpha  occ. eigenvalues --   -0.65128  -0.63109  -0.62706  -0.61665  -0.59692
 Alpha  occ. eigenvalues --   -0.46494  -0.42897
 Alpha virt. eigenvalues --   -0.12642  -0.08726  -0.07669  -0.06403  -0.05187
 Alpha virt. eigenvalues --   -0.04036  -0.03882  -0.03280  -0.02872  -0.02206
 Alpha virt. eigenvalues --   -0.01850  -0.01607  -0.01138  -0.00232   0.00065

 Mulliken charges:
               1
     1  N   -0.468961
     2  H    0.202745
     3  H    0.224749
     4  C    0.218687
     5  C    1.347446
     6  O   -0.635759
     7  H    0.165643
     8  O   -0.703745
     9  H   -0.101028
    10  C    0.461151
    11  H   -0.123132
    12  H   -0.240102
    13  C    1.065121
    14  C    0.577204
    15  H   -0.728162
    16  C    0.467744
    17  O   -0.930662
    18  H    0.213099
    19  C    0.499710
    20  O   -0.917908
    21  H    0.207047
    22  C    0.534441
    23  H   -0.500324
    24  C    0.645710
    25  H   -0.701256
    26  H    0.220540
 Sum of Mulliken charges =   1.00000

 Dipole moment (field-independent basis, Debye):
    X=              5.3898    Y=              8.5092    Z=              5.0656  Tot=             11.2746
 Quadrupole moment (field-independent basis, Debye-Ang):
   XX=            -69.7686   YY=            -61.4290   ZZ=            -71.7515
   XY=             12.3537   XZ=             20.4432   YZ=              1.2556

 Normal termination of Gaussian 16 at Sun Jul 18 15:19:18 2021.
