 Gaussian 16, Revision A.03,

 ---------------------------------------------------------------
 #p b3lyp/6-31G(d) opt freq scrf=(iefpcm,read,solvent=n-octanol)
 ---------------------------------------------------------------

 --------------------------------------------
 SET_328_BBB20_conf1.geo_060_180_300 geometry
 --------------------------------------------
 Symbolic Z-matrix:
 Charge =  1 Multiplicity = 1

 SCF Done:  E(RB3LYP) =  -769.774651656     A.U. after   13 cycles
 SCF Done:  E(RB3LYP) =  -769.809863025     A.U. after   11 cycles
 SCF Done:  E(RB3LYP) =  -769.818566396     A.U. after   12 cycles
 SCF Done:  E(RB3LYP) =  -769.833506974     A.U. after   11 cycles
 SCF Done:  E(RB3LYP) =  -769.835360922     A.U. after   11 cycles
 SCF Done:  E(RB3LYP) =  -769.835142874     A.U. after   11 cycles
 SCF Done:  E(RB3LYP) =  -769.836086386     A.U. after   11 cycles
 SCF Done:  E(RB3LYP) =  -769.836455634     A.U. after   10 cycles
 SCF Done:  E(RB3LYP) =  -769.836418659     A.U. after   11 cycles
 SCF Done:  E(RB3LYP) =  -769.837371686     A.U. after   10 cycles
 SCF Done:  E(RB3LYP) =  -769.837982624     A.U. after    9 cycles
 SCF Done:  E(RB3LYP) =  -769.837986731     A.U. after    7 cycles
 SCF Done:  E(RB3LYP) =  -769.838020000     A.U. after    9 cycles
 SCF Done:  E(RB3LYP) =  -769.837985733     A.U. after    9 cycles
 SCF Done:  E(RB3LYP) =  -769.838020139     A.U. after    9 cycles
 SCF Done:  E(RB3LYP) =  -769.837987174     A.U. after    9 cycles
 Optimization completed on the basis of negligible forces.
    -- Stationary point found.
 Normal termination of Gaussian 16 at Sun Jul 18 16:25:00 2021.

 --------------------------------------------------------------------
 #P Geom=AllCheck Guess=TCheck SCRF=Check GenChk RB3LYP/6-31G(d) Freq
 --------------------------------------------------------------------

 Structure from the checkpoint file:  "SET_328_BBB20_conf1.geo_060_180_300.chk"
 --------------------------------------------
 SET_328_BBB20_conf1.geo_060_180_300 geometry
 --------------------------------------------
 Charge =  1 Multiplicity = 1

 SCF Done:  E(RB3LYP) =  -769.837987174     A.U. after    1 cycles

  Exact polarizability: 232.932  22.324 263.891 -37.714  24.613 184.066
 Approx polarizability: 274.461  17.036 312.929 -53.582  36.107 243.334

                      1                      2                      3
                      A                      A                      A
 Frequencies --     37.5683                60.3023                74.3692
 Red. masses --      4.1543                 4.0965                 4.2245
 Frc consts  --      0.0035                 0.0088                 0.0138
 IR Inten    --      2.2389                 5.8765                15.0607

                      4                      5                      6
                      A                      A                      A
 Frequencies --     98.5837               137.8466               146.3158
 Red. masses --      3.6558                 2.3879                 3.5543
 Frc consts  --      0.0209                 0.0267                 0.0448
 IR Inten    --      0.8998                13.6989                 0.8867

                      7                      8                      9
                      A                      A                      A
 Frequencies --    164.6434               210.0385               226.3447
 Red. masses --      3.1273                 2.8602                 2.7140
 Frc consts  --      0.0499                 0.0743                 0.0819
 IR Inten    --      3.0062                22.6256                 1.1642

                     10                     11                     12
                      A                      A                      A
 Frequencies --    267.0024               275.6279               305.8860
 Red. masses --      2.5451                 2.3342                 3.0272
 Frc consts  --      0.1069                 0.1045                 0.1669
 IR Inten    --      1.6576                 7.6934                 3.4226

                     13                     14                     15
                      A                      A                      A
 Frequencies --    320.7653               341.6212               365.0168
 Red. masses --      3.5577                 3.8325                 3.5103
 Frc consts  --      0.2157                 0.2635                 0.2756
 IR Inten    --      0.4074                 3.2182                 5.4710

                     16                     17                     18
                      A                      A                      A
 Frequencies --    403.6552               424.0926               445.0812
 Red. masses --      1.2973                 3.6021                 2.9354
 Frc consts  --      0.1245                 0.3817                 0.3426
 IR Inten    --      4.5959                10.5313                 1.6264

                     19                     20                     21
                      A                      A                      A
 Frequencies --    467.1374               477.8573               498.0849
 Red. masses --      3.3842                 3.2066                 3.4575
 Frc consts  --      0.4351                 0.4314                 0.5054
 IR Inten    --      5.3445                 2.6458                 2.4933

                     22                     23                     24
                      A                      A                      A
 Frequencies --    537.8223               552.1378               575.9237
 Red. masses --      3.0596                 3.7149                 4.8767
 Frc consts  --      0.5214                 0.6673                 0.9530
 IR Inten    --      1.0597                 0.9877                 0.6547

                     25                     26                     27
                      A                      A                      A
 Frequencies --    599.3369               623.1816               637.0229
 Red. masses --      3.2280                 4.4439                 4.5595
 Frc consts  --      0.6832                 1.0168                 1.0901
 IR Inten    --      1.5955                 9.0737                12.1679

                     28                     29                     30
                      A                      A                      A
 Frequencies --    708.0685               729.9906               758.8317
 Red. masses --      4.5554                 3.4149                 2.4274
 Frc consts  --      1.3456                 1.0722                 0.8236
 IR Inten    --      0.5483                 3.6623                 6.4077

                     31                     32                     33
                      A                      A                      A
 Frequencies --    767.3703               773.7608               785.4354
 Red. masses --      1.5222                 1.5438                 2.1505
 Frc consts  --      0.5281                 0.5446                 0.7817
 IR Inten    --     33.2420                46.8238                34.2705

                     34                     35                     36
                      A                      A                      A
 Frequencies --    799.6493               816.1764               849.0865
 Red. masses --      1.7579                 2.8406                 1.9147
 Frc consts  --      0.6623                 1.1149                 0.8133
 IR Inten    --      1.2332                 2.8948                13.1960

                     37                     38                     39
                      A                      A                      A
 Frequencies --    872.8323               877.1581               888.9682
 Red. masses --      1.6297                 1.5535                 1.5039
 Frc consts  --      0.7315                 0.7042                 0.7002
 IR Inten    --     10.5940                17.2741                 2.1822

                     40                     41                     42
                      A                      A                      A
 Frequencies --    914.0054               933.7568               947.8652
 Red. masses --      2.2861                 2.5011                 1.5180
 Frc consts  --      1.1252                 1.2848                 0.8035
 IR Inten    --     13.8873                14.6341                 6.5149

                     43                     44                     45
                      A                      A                      A
 Frequencies --    950.7106               982.8664               984.4378
 Red. masses --      1.3707                 1.2619                 1.2587
 Frc consts  --      0.7299                 0.7182                 0.7187
 IR Inten    --      3.1006                 0.0830                 0.0269

                     46                     47                     48
                      A                      A                      A
 Frequencies --    990.3902              1002.6371              1051.1426
 Red. masses --      2.1151                 1.4098                 2.4448
 Frc consts  --      1.2223                 0.8350                 1.5915
 IR Inten    --      1.7290                 8.7474                14.0011

                     49                     50                     51
                      A                      A                      A
 Frequencies --   1054.6274              1063.9114              1076.3324
 Red. masses --      1.9267                 3.0126                 2.0381
 Frc consts  --      1.2626                 2.0091                 1.3911
 IR Inten    --     19.3867                 2.6036                 5.1613

                     52                     53                     54
                      A                      A                      A
 Frequencies --   1086.7601              1095.6218              1137.8170
 Red. masses --      2.6875                 2.4107                 1.9170
 Frc consts  --      1.8701                 1.7050                 1.4623
 IR Inten    --     11.0510                 7.1959                32.2030

                     55                     56                     57
                      A                      A                      A
 Frequencies --   1148.5367              1161.2386              1184.9285
 Red. masses --      1.8025                 1.8110                 1.4724
 Frc consts  --      1.4009                 1.4389                 1.2181
 IR Inten    --     19.5376                 9.4593                23.7647

                     58                     59                     60
                      A                      A                      A
 Frequencies --   1191.4885              1195.2056              1204.9631
 Red. masses --      1.1739                 1.2210                 1.1655
 Frc consts  --      0.9819                 1.0277                 0.9970
 IR Inten    --      3.5587                 3.1451                 6.0622

                     61                     62                     63
                      A                      A                      A
 Frequencies --   1214.2711              1238.7636              1254.1080
 Red. masses --      1.7313                 2.5529                 1.5821
 Frc consts  --      1.5040                 2.3082                 1.4661
 IR Inten    --      2.6938                 4.4910                44.1840

                     64                     65                     66
                      A                      A                      A
 Frequencies --   1266.1755              1279.6883              1304.1391
 Red. masses --      2.3946                 1.9369                 1.4084
 Frc consts  --      2.2619                 1.8688                 1.4113
 IR Inten    --     78.0447               168.3257                28.7832

                     67                     68                     69
                      A                      A                      A
 Frequencies --   1327.1644              1333.3700              1339.5925
 Red. masses --      1.6797                 1.3964                 2.5331
 Frc consts  --      1.7431                 1.4627                 2.6782
 IR Inten    --      1.8080                10.4867                86.0252

                     70                     71                     72
                      A                      A                      A
 Frequencies --   1352.1536              1363.9102              1373.2240
 Red. masses --      3.4932                 1.9538                 1.6060
 Frc consts  --      3.7629                 2.1414                 1.7844
 IR Inten    --     11.8007                11.9098                22.0938

                     73                     74                     75
                      A                      A                      A
 Frequencies --   1383.3212              1399.1534              1406.0208
 Red. masses --      1.5035                 1.4850                 1.3014
 Frc consts  --      1.6951                 1.7128                 1.5158
 IR Inten    --      4.7940                15.8381                10.9818

                     76                     77                     78
                      A                      A                      A
 Frequencies --   1434.3913              1488.1315              1492.7710
 Red. masses --      1.3770                 1.4583                 1.6772
 Frc consts  --      1.6692                 1.9028                 2.2021
 IR Inten    --     40.5318                20.5225                23.9833

                     79                     80                     81
                      A                      A                      A
 Frequencies --   1500.1359              1502.6183              1510.5995
 Red. masses --      1.5312                 1.2667                 1.1937
 Frc consts  --      2.0302                 1.6851                 1.6049
 IR Inten    --      1.8515                14.3078                54.7723

                     82                     83                     84
                      A                      A                      A
 Frequencies --   1523.6186              1529.0136              1534.1677
 Red. masses --      1.1068                 1.2507                 1.7934
 Frc consts  --      1.5138                 1.7228                 2.4870
 IR Inten    --     19.8395                 6.0473               215.6956

                     85                     86                     87
                      A                      A                      A
 Frequencies --   1547.6191              1553.7078              1607.8935
 Red. masses --      2.0977                 1.3410                 1.1336
 Frc consts  --      2.9603                 1.9072                 1.7267
 IR Inten    --     20.5639                24.3026               143.2563

                     88                     89                     90
                      A                      A                      A
 Frequencies --   1633.5965              1644.8351              1657.0714
 Red. masses --      5.8002                 6.4864                 5.0808
 Frc consts  --      9.1198                10.3394                 8.2198
 IR Inten    --     26.2714                 9.2587                21.3151

                     91                     92                     93
                      A                      A                      A
 Frequencies --   1661.7018              1663.2231              1712.3462
 Red. masses --      1.2029                 3.5857                 1.0405
 Frc consts  --      1.9570                 5.8441                 1.7975
 IR Inten    --    107.0450                 1.0224                87.3210

                     94                     95                     96
                      A                      A                      A
 Frequencies --   2991.6987              3040.8383              3061.9317
 Red. masses --      1.0729                 1.0628                 1.0688
 Frc consts  --      5.6575                 5.7900                 5.9038
 IR Inten    --     85.0654                40.4289                17.2790

                     97                     98                     99
                      A                      A                      A
 Frequencies --   3077.5376              3100.2372              3112.4663
 Red. masses --      1.0906                 1.0632                 1.1039
 Frc consts  --      6.0858                 6.0207                 6.3010
 IR Inten    --     71.0455                 8.2524                39.0909

                    100                    101                    102
                      A                      A                      A
 Frequencies --   3119.6553              3126.6593              3150.6988
 Red. masses --      1.0647                 1.0839                 1.0987
 Frc consts  --      6.1051                 6.2428                 6.4261
 IR Inten    --     14.8406                23.7015                27.7433

                    103                    104                    105
                      A                      A                      A
 Frequencies --   3176.5636              3181.2371              3198.1648
 Red. masses --      1.1092                 1.0884                 1.0879
 Frc consts  --      6.5944                 6.4895                 6.5558
 IR Inten    --     12.9590                22.9121                16.4559

                    106                    107                    108
                      A                      A                      A
 Frequencies --   3203.2990              3211.8684              3220.4241
 Red. masses --      1.0854                 1.0884                 1.0927
 Frc consts  --      6.5622                 6.6156                 6.6767
 IR Inten    --      3.4767                10.8562                46.4180

                    109                    110                    111
                      A                      A                      A
 Frequencies --   3223.9691              3229.9882              3230.8408
 Red. masses --      1.0910                 1.0958                 1.0971
 Frc consts  --      6.6812                 6.7356                 6.7474
 IR Inten    --     37.0579                33.4774                26.9467

                    112                    113                    114
                      A                      A                      A
 Frequencies --   3413.3492              3479.5375              3498.7174
 Red. masses --      1.0337                 1.0925                 1.0923
 Frc consts  --      7.0957                 7.7930                 7.8776
 IR Inten    --     93.7141               187.9147               177.7926

 - Thermochemistry -
 -------------------
 Temperature   298.150 Kelvin.  Pressure   1.00000 Atm.
 Atom     1 has atomic number  7 and mass  14.00307

 Molecular mass:   253.17047 amu.
 Principal axes and moments of inertia in atomic units:
                           1         2         3
     Eigenvalues --  4568.445285221.801778148.04539
           X            0.98854  -0.15092  -0.00396
           Y            0.15093   0.98853   0.00495
           Z            0.00317  -0.00549   0.99998
 This molecule is an asymmetric top.
 Rotational symmetry number  1.
 Warning -- assumption of classical behavior for rotation
           may cause significant error
 Rotational temperatures (Kelvin)      0.01896     0.01659     0.01063
 Rotational constants (GHZ):           0.39504     0.34562     0.22149
 Zero-point vibrational energy     935132.9 (Joules/Mol)
                                  223.50213 (Kcal/Mol)
 Warning -- explicit consideration of  25 degrees of freedom as
           vibrations may cause significant error
 Vibrational temperatures:     54.05    86.76   107.00   141.84   198.33
          (Kelvin)            210.52   236.89   302.20   325.66   384.16
                              396.57   440.10   461.51   491.52   525.18
                              580.77   610.17   640.37   672.11   687.53
                              716.63   773.81   794.40   828.63   862.31
                              896.62   916.53  1018.75  1050.29  1091.79
                             1104.07  1113.27  1130.07  1150.52  1174.30
                             1221.65  1255.81  1262.03  1279.03  1315.05
                             1343.47  1363.77  1367.86  1414.13  1416.39
                             1424.95  1442.57  1512.36  1517.37  1530.73
                             1548.60  1563.61  1576.36  1637.06  1652.49
                             1670.76  1704.85  1714.29  1719.63  1733.67
                             1747.07  1782.30  1804.38  1821.74  1841.19
                             1876.37  1909.49  1918.42  1927.37  1945.45
                             1962.36  1975.76  1990.29  2013.07  2022.95
                             2063.77  2141.09  2147.76  2158.36  2161.93
                             2173.42  2192.15  2199.91  2207.33  2226.68
                             2235.44  2313.40  2350.38  2366.55  2384.16
                             2390.82  2393.01  2463.68  4304.39  4375.09
                             4405.44  4427.89  4460.55  4478.14  4488.49
                             4498.57  4533.15  4570.37  4577.09  4601.45
                             4608.83  4621.16  4633.47  4638.57  4647.23
                             4648.46  4911.05  5006.28  5033.87

 Zero-point correction=                           0.356173 (Hartree/Particle)
 Thermal correction to Energy=                    0.372043
 Thermal correction to Enthalpy=                  0.372987
 Thermal correction to Gibbs Free Energy=         0.313146
 Sum of electronic and zero-point Energies=           -769.481814
 Sum of electronic and thermal Energies=              -769.465944
 Sum of electronic and thermal Enthalpies=            -769.465000
 Sum of electronic and thermal Free Energies=         -769.524841

                     E (Thermal)             CV                S
                      KCal/Mol        Cal/Mol-Kelvin    Cal/Mol-Kelvin
 Total                  233.461             65.310            125.947
 Electronic               0.000              0.000              0.000
 Translational            0.889              2.981             42.487
 Rotational               0.889              2.981             33.630
 Vibrational            231.683             59.348             49.831
 Vibration     1          0.594              1.982              5.383
 Vibration     2          0.597              1.973              4.447
 Vibration     3          0.599              1.966              4.034
 Vibration     4          0.604              1.950              3.482
 Vibration     5          0.614              1.916              2.834
 Vibration     6          0.617              1.907              2.720
 Vibration     7          0.623              1.886              2.496
 Vibration     8          0.642              1.825              2.043
 Vibration     9          0.650              1.801              1.908
 Vibration    10          0.672              1.734              1.616
 Vibration    11          0.677              1.718              1.561
 Vibration    12          0.696              1.663              1.384
 Vibration    13          0.706              1.634              1.306
 Vibration    14          0.721              1.592              1.205
 Vibration    15          0.738              1.544              1.101
 Vibration    16          0.769              1.462              0.949
 Vibration    17          0.786              1.418              0.878
 Vibration    18          0.804              1.372              0.811
 Vibration    19          0.824              1.323              0.746
 Vibration    20          0.834              1.299              0.716
 Vibration    21          0.854              1.254              0.663
 Vibration    22          0.893              1.166              0.570
 Vibration    23          0.907              1.135              0.540
 Vibration    24          0.932              1.083              0.493
 Vibration    25          0.957              1.033              0.451

 Optimization completed.
    -- Stationary point found.
 Normal termination of Gaussian 16 at Sun Jul 18 17:20:26 2021.

 ----------------------------------------------------------------------
 #p b3lyp/6-31G(d) scrf=(iefpcm,read,solvent=n-octanol) geom=allcheck g
 uess=read
 ----------------------------------------------------------------------

 Structure from the checkpoint file:  "SET_328_BBB20_conf1.geo_060_180_300.chk"
 --------------------------------------------
 SET_328_BBB20_conf1.geo_060_180_300 geometry
 --------------------------------------------
 Charge =  1 Multiplicity = 1

 SCF Done:  E(RB3LYP) =  -769.840826652     A.U. after    1 cycles
 Normal termination of Gaussian 16 at Sun Jul 18 17:21:34 2021.

 -----------------------------
 #p B3LYP/6-31G* geom=allcheck
 -----------------------------

 Structure from the checkpoint file:  "SET_328_BBB20_conf1.geo_060_180_300.chk"
 --------------------------------------------
 SET_328_BBB20_conf1.geo_060_180_300 geometry
 --------------------------------------------
 Charge =  1 Multiplicity = 1

 SCF Done:  E(RB3LYP) =  -769.714528288     A.U. after   14 cycles

 The electronic state is 1-A.
 Alpha  occ. eigenvalues --  -14.66382 -14.45110 -10.42962 -10.35295 -10.34836
 Alpha  occ. eigenvalues --  -10.31319 -10.31018 -10.27765 -10.27609 -10.27587
 Alpha  occ. eigenvalues --  -10.27324 -10.27021 -10.26997 -10.26887 -10.26853
 Alpha  occ. eigenvalues --  -10.26821 -10.26629 -10.26207 -10.26005  -1.20498
 Alpha  occ. eigenvalues --   -1.05311  -0.96074  -0.93893  -0.92654  -0.88164
 Alpha  occ. eigenvalues --   -0.86085  -0.83747  -0.83607  -0.80740  -0.79632
 Alpha  occ. eigenvalues --   -0.78760  -0.77432  -0.75469  -0.72924  -0.69374
 Alpha  occ. eigenvalues --   -0.68401  -0.67953  -0.66566  -0.65472  -0.62419
 Alpha  occ. eigenvalues --   -0.60993  -0.59899  -0.58206  -0.57403  -0.55986
 Alpha  occ. eigenvalues --   -0.54933  -0.54293  -0.53492  -0.52373  -0.52060
 Alpha  occ. eigenvalues --   -0.51746  -0.50210  -0.49866  -0.48752  -0.47816
 Alpha  occ. eigenvalues --   -0.46774  -0.45984  -0.44561  -0.43842  -0.42901
 Alpha  occ. eigenvalues --   -0.42173  -0.41859  -0.41045  -0.37737  -0.33162
 Alpha  occ. eigenvalues --   -0.32426  -0.31818  -0.29071
 Alpha virt. eigenvalues --   -0.16627  -0.10230  -0.10015  -0.09064  -0.08480
 Alpha virt. eigenvalues --   -0.07831  -0.07342  -0.06370  -0.03737  -0.02668
 Alpha virt. eigenvalues --   -0.01057   0.00099   0.02340   0.02535   0.02633

 Mulliken charges:
               1
     1  N   -0.725462
     2  H    0.433401
     3  H    0.429762
     4  C   -0.222091
     5  H    0.230343
     6  H    0.233201
     7  C   -0.302702
     8  H    0.223061
     9  H    0.177252
    10  C   -0.134323
    11  H    0.134373
    12  H    0.148170
    13  N   -0.579005
    14  C    0.199948
    15  C   -0.166264
    16  H    0.121858
    17  C   -0.146492
    18  H    0.146117
    19  C   -0.116749
    20  H    0.151067
    21  C   -0.209993
    22  H    0.145088
    23  C    0.163541
    24  C   -0.346588
    25  H    0.154851
    26  H    0.140065
    27  C   -0.347443
    28  H    0.173130
    29  H    0.163132
    30  C    0.163704
    31  C   -0.197566
    32  H    0.141340
    33  C   -0.119372
    34  H    0.147411
    35  C   -0.144877
    36  H    0.140056
    37  C   -0.179318
    38  H    0.110321
    39  C    0.234100
    40  H    0.432953
 Sum of Mulliken charges =   1.00000

 Dipole moment (field-independent basis, Debye):
    X=             15.9920    Y=             -9.8778    Z=              3.1605  Tot=             19.0606
 Quadrupole moment (field-independent basis, Debye-Ang):
   XX=            -32.3863   YY=            -66.6459   ZZ=           -102.8271
   XY=            -43.2233   XZ=              7.4539   YZ=             -5.7393

 Normal termination of Gaussian 16 at Sun Jul 18 17:24:56 2021.
 Gaussian 16:  ES64L-G16RevA.03 25-Dec-2016

 --------------------------------------------------------
 #p mp2/aug-cc-pVDZ scf=tight maxdisk=180GB geom=allcheck
 --------------------------------------------------------

 Structure from the checkpoint file:  "SET_328_BBB20_conf1.geo_060_180_300.chk"
 --------------------------------------------
 SET_328_BBB20_conf1.geo_060_180_300 geometry
 --------------------------------------------
 Charge =  1 Multiplicity = 1

                         Standard orientation:
 ---------------------------------------------------------------------
 Center     Atomic      Atomic             Coordinates (Angstroms)
 Number     Number       Type             X           Y           Z
 ---------------------------------------------------------------------
      1          7           0        3.917082   -2.739900    0.763090
      2          1           0        3.280627   -3.356880    0.242638
      3          1           0        3.658177   -2.806016    1.756575
      4          6           0        3.901747   -1.313003    0.272203
      5          1           0        4.138066   -1.350128   -0.793075
      6          1           0        4.721747   -0.813726    0.788817
      7          6           0        2.584021   -0.595017    0.542993
      8          1           0        2.758712    0.463127    0.330386
      9          1           0        2.330597   -0.658582    1.605059
     10          6           0        1.395094   -1.084236   -0.293926
     11          1           0        1.142845   -2.109592   -0.020047
     12          1           0        1.671682   -1.097854   -1.360492
     13          7           0        0.203609   -0.283906   -0.025891
     14          6           0        0.298262    1.119253   -0.289152
     15          6           0        0.984799    1.613839   -1.404291
     16          1           0        1.443140    0.921515   -2.101485
     17          6           0        1.073577    2.989442   -1.619880
     18          1           0        1.605915    3.364131   -2.487192
     19          6           0        0.469215    3.875881   -0.729047
     20          1           0        0.533312    4.945983   -0.894141
     21          6           0       -0.212396    3.378734    0.382312
     22          1           0       -0.674719    4.060822    1.088237
     23          6           0       -0.295137    2.005823    0.622601
     24          6           0       -1.014647    1.435798    1.809956
     25          1           0       -1.248357    2.234736    2.519973
     26          1           0       -0.364095    0.716737    2.319234
     27          6           0       -2.320258    0.742434    1.409255
     28          1           0       -2.973883    1.492097    0.945761
     29          1           0       -2.841539    0.420764    2.318440
     30          6           0       -2.229272   -0.454936    0.477954
     31          6           0       -3.423248   -1.160665    0.279606
     32          1           0       -4.310254   -0.808832    0.801007
     33          6           0       -3.511181   -2.286901   -0.531381
     34          1           0       -4.455579   -2.806190   -0.646131
     35          6           0       -2.366608   -2.730506   -1.189457
     36          1           0       -2.401910   -3.597787   -1.841805
     37          6           0       -1.168551   -2.042301   -1.023757
     38          1           0       -0.294725   -2.374249   -1.571684
     39          6           0       -1.068714   -0.913317   -0.188426
     40          1           0        4.855186   -3.155362    0.674164
 ---------------------------------------------------------------------

 SCF Done:  E(RHF) =  -764.746373950     A.U. after   16 cycles
