 Gaussian 16, Revision A.03,

 ---------------------------------------------------------------
 #p b3lyp/6-31G(d) opt freq scrf=(iefpcm,read,solvent=n-octanol)
 ---------------------------------------------------------------

 --------------------------------------------
 SET_328_BBB30_conf1.geo_105_180_285 geometry
 --------------------------------------------
 Symbolic Z-matrix:
 Charge =  1 Multiplicity = 1

 SCF Done:  E(RB3LYP) =  -445.280183982     A.U. after   12 cycles
 SCF Done:  E(RB3LYP) =  -445.308209995     A.U. after   11 cycles
 SCF Done:  E(RB3LYP) =  -445.295939457     A.U. after   11 cycles
 SCF Done:  E(RB3LYP) =  -445.319679366     A.U. after   11 cycles
 SCF Done:  E(RB3LYP) =  -445.320991733     A.U. after   10 cycles
 SCF Done:  E(RB3LYP) =  -445.321033436     A.U. after   10 cycles
 SCF Done:  E(RB3LYP) =  -445.321148164     A.U. after    9 cycles
 SCF Done:  E(RB3LYP) =  -445.321148894     A.U. after    8 cycles
 SCF Done:  E(RB3LYP) =  -445.321137615     A.U. after    7 cycles
 SCF Done:  E(RB3LYP) =  -445.321141502     A.U. after    7 cycles
 Optimization completed.
    -- Stationary point found.
 Normal termination of Gaussian 16 at Sun Jul 18 14:41:50 2021.

 --------------------------------------------------------------------
 #P Geom=AllCheck Guess=TCheck SCRF=Check GenChk RB3LYP/6-31G(d) Freq
 --------------------------------------------------------------------

 Structure from the checkpoint file:  "SET_328_BBB30_conf1.geo_105_180_285.chk"
 --------------------------------------------
 SET_328_BBB30_conf1.geo_105_180_285 geometry
 --------------------------------------------
 Charge =  1 Multiplicity = 1

 SCF Done:  E(RB3LYP) =  -445.321141502     A.U. after    1 cycles

  Exact polarizability: 163.991  -5.002 127.758 -12.118 -19.226  87.962
 Approx polarizability: 186.934  -7.711 164.185 -17.026 -30.262 111.578

                      1                      2                      3
                      A                      A                      A
 Frequencies --     68.0209                85.4464                94.5166
 Red. masses --      3.2476                 3.2765                 3.6073
 Frc consts  --      0.0089                 0.0141                 0.0190
 IR Inten    --      0.0256                 2.9268                 2.2123

                      4                      5                      6
                      A                      A                      A
 Frequencies --    190.6055               222.9390               238.8922
 Red. masses --      1.4894                 1.3969                 1.4082
 Frc consts  --      0.0319                 0.0409                 0.0474
 IR Inten    --      1.6232                 0.6376                 1.5807

                      7                      8                      9
                      A                      A                      A
 Frequencies --    249.4818               273.9686               341.1993
 Red. masses --      3.2923                 2.1563                 2.2018
 Frc consts  --      0.1207                 0.0954                 0.1510
 IR Inten    --      3.0818                 7.8011                 2.4673

                     10                     11                     12
                      A                      A                      A
 Frequencies --    390.7782               411.9039               417.9306
 Red. masses --      2.6707                 2.1009                 2.9368
 Frc consts  --      0.2403                 0.2100                 0.3022
 IR Inten    --      5.5052                 3.5003                 0.0759

                     13                     14                     15
                      A                      A                      A
 Frequencies --    476.2861               511.2998               603.8584
 Red. masses --      2.7449                 2.9434                 4.5078
 Frc consts  --      0.3669                 0.4534                 0.9685
 IR Inten    --      4.0103                 6.0060                 3.9840

                     16                     17                     18
                      A                      A                      A
 Frequencies --    635.5043               716.3937               757.9620
 Red. masses --      6.2736                 2.0290                 1.7214
 Frc consts  --      1.4928                 0.6135                 0.5827
 IR Inten    --      0.0554                27.6849                46.5312

                     19                     20                     21
                      A                      A                      A
 Frequencies --    812.6068               831.7029               863.8032
 Red. masses --      2.5552                 2.5765                 1.2501
 Frc consts  --      0.9941                 1.0501                 0.5496
 IR Inten    --      6.2914                 3.0665                 0.0369

                     22                     23                     24
                      A                      A                      A
 Frequencies --    886.7821               896.4997               925.8459
 Red. masses --      1.3358                 2.0959                 1.4153
 Frc consts  --      0.6189                 0.9925                 0.7148
 IR Inten    --     21.0894                 3.8811                 1.2603

                     25                     26                     27
                      A                      A                      A
 Frequencies --    938.7280               976.0774              1007.2106
 Red. masses --      1.4417                 1.3546                 1.2649
 Frc consts  --      0.7485                 0.7604                 0.7560
 IR Inten    --      2.7338                 0.0790                 0.1724

                     28                     29                     30
                      A                      A                      A
 Frequencies --   1018.4762              1024.7117              1052.0168
 Red. masses --      6.0776                 4.8905                 1.4801
 Frc consts  --      3.7144                 3.0255                 0.9652
 IR Inten    --      3.0060                18.5143                35.5566

                     31                     32                     33
                      A                      A                      A
 Frequencies --   1057.4144              1081.3648              1109.5552
 Red. masses --      2.2085                 1.7309                 1.6649
 Frc consts  --      1.4549                 1.1926                 1.2076
 IR Inten    --      0.8702                 6.8125                20.0860

                     34                     35                     36
                      A                      A                      A
 Frequencies --   1128.1537              1168.6096              1193.8612
 Red. masses --      1.5080                 1.3804                 1.0976
 Frc consts  --      1.1308                 1.1107                 0.9217
 IR Inten    --     16.9640                 3.8591                 0.0246

                     37                     38                     39
                      A                      A                      A
 Frequencies --   1208.9467              1221.4149              1236.1257
 Red. masses --      1.1331                 1.7588                 2.4635
 Frc consts  --      0.9758                 1.5459                 2.2179
 IR Inten    --      0.3541                 7.7893                 0.1645

                     40                     41                     42
                      A                      A                      A
 Frequencies --   1271.4756              1348.3980              1361.4650
 Red. masses --      1.5580                 1.3691                 1.6420
 Frc consts  --      1.4840                 1.4666                 1.7933
 IR Inten    --      5.9258                 1.0135                 0.6548

                     43                     44                     45
                      A                      A                      A
 Frequencies --   1366.1532              1385.8121              1397.1225
 Red. masses --      2.7867                 1.3319                 1.2916
 Frc consts  --      3.0643                 1.5071                 1.4854
 IR Inten    --      0.6303                 0.7237                 5.8594

                     46                     47                     48
                      A                      A                      A
 Frequencies --   1444.2567              1458.0657              1465.5068
 Red. masses --      1.2757                 1.1305                 1.1518
 Frc consts  --      1.5677                 1.4161                 1.4575
 IR Inten    --     20.5483                 8.7936                19.7624

                     49                     50                     51
                      A                      A                      A
 Frequencies --   1501.1034              1503.4214              1511.8485
 Red. masses --      1.5295                 1.4059                 1.0902
 Frc consts  --      2.0306                 1.8722                 1.4682
 IR Inten    --     12.8701                22.3608                 8.8386

                     52                     53                     54
                      A                      A                      A
 Frequencies --   1518.7221              1526.9947              1531.9106
 Red. masses --      1.0484                 1.0651                 1.0913
 Frc consts  --      1.4247                 1.4632                 1.5089
 IR Inten    --      6.1913                68.7283                 2.6309

                     55                     56                     57
                      A                      A                      A
 Frequencies --   1544.2062              1546.5877              1648.0067
 Red. masses --      1.2005                 1.9334                 5.4986
 Frc consts  --      1.6867                 2.7248                 8.7988
 IR Inten    --     23.5332                25.2380                 1.6496

                     58                     59                     60
                      A                      A                      A
 Frequencies --   1667.0805              1679.1235              3075.6011
 Red. masses --      5.7268                 1.0690                 1.0597
 Frc consts  --      9.3772                 1.7758                 5.9061
 IR Inten    --      3.0191               112.3302                32.4669

                     61                     62                     63
                      A                      A                      A
 Frequencies --   3089.0644              3112.0257              3126.5511
 Red. masses --      1.0383                 1.0930                 1.0841
 Frc consts  --      5.8375                 6.2365                 6.2436
 IR Inten    --     13.2303                 1.8946                16.3152

                     64                     65                     66
                      A                      A                      A
 Frequencies --   3129.8105              3163.1075              3179.0045
 Red. masses --      1.0433                 1.1023                 1.1025
 Frc consts  --      6.0211                 6.4979                 6.5645
 IR Inten    --     19.7696                25.0352                13.1845

                     67                     68                     69
                      A                      A                      A
 Frequencies --   3195.9408              3198.1543              3210.1516
 Red. masses --      1.0877                 1.0881                 1.0892
 Frc consts  --      6.5456                 6.5572                 6.6133
 IR Inten    --     12.2280                13.0582                 8.4535

                     70                     71                     72
                      A                      A                      A
 Frequencies --   3220.2578              3222.8072              3230.8833
 Red. masses --      1.0936                 1.1093                 1.0978
 Frc consts  --      6.6815                 6.7885                 6.7520
 IR Inten    --     43.7113                 3.7654                23.2161

                     73                     74                     75
                      A                      A                      A
 Frequencies --   3232.7332              3373.8042              3427.4158
 Red. masses --      1.1086                 1.0598                 1.0903
 Frc consts  --      6.8257                 7.1076                 7.5459
 IR Inten    --      5.3076               130.4291               156.4689

 - Thermochemistry -
 -------------------
 Temperature   298.150 Kelvin.  Pressure   1.00000 Atm.
 Atom     1 has atomic number  6 and mass  12.00000

 Molecular mass:   150.12827 amu.
 Principal axes and moments of inertia in atomic units:
                           1         2         3
     Eigenvalues --   739.762583233.601643585.18793
           X            0.99998  -0.00614  -0.00236
           Y            0.00614   0.99998  -0.00011
           Z            0.00236   0.00010   1.00000
 This molecule is an asymmetric top.
 Rotational symmetry number  1.
 Warning -- assumption of classical behavior for rotation
           may cause significant error
 Rotational temperatures (Kelvin)      0.11708     0.02679     0.02416
 Rotational constants (GHZ):           2.43962     0.55812     0.50339
 Zero-point vibrational energy     653110.0 (Joules/Mol)
                                  156.09704 (Kcal/Mol)
 Warning -- explicit consideration of  15 degrees of freedom as
           vibrations may cause significant error
 Vibrational temperatures:     97.87   122.94   135.99   274.24   320.76
          (Kelvin)            343.71   358.95   394.18   490.91   562.24
                              592.64   601.31   685.27   735.65   868.82
                              914.35  1030.73  1090.54  1169.16  1196.63
                             1242.82  1275.88  1289.86  1332.09  1350.62
                             1404.36  1449.15  1465.36  1474.33  1513.62
                             1521.38  1555.84  1596.40  1623.16  1681.37
                             1717.70  1739.40  1757.34  1778.51  1829.37
                             1940.04  1958.84  1965.59  1993.87  2010.15
                             2077.96  2097.83  2108.54  2159.75  2163.09
                             2175.21  2185.10  2197.00  2204.08  2221.77
                             2225.19  2371.11  2398.56  2415.88  4425.10
                             4444.47  4477.51  4498.41  4503.10  4551.01
                             4573.88  4598.25  4601.43  4618.69  4633.23
                             4636.90  4648.52  4651.18  4854.15  4931.29

 Zero-point correction=                           0.248756 (Hartree/Particle)
 Thermal correction to Energy=                    0.259562
 Thermal correction to Enthalpy=                  0.260506
 Thermal correction to Gibbs Free Energy=         0.212393
 Sum of electronic and zero-point Energies=           -445.072385
 Sum of electronic and thermal Energies=              -445.061580
 Sum of electronic and thermal Enthalpies=            -445.060635
 Sum of electronic and thermal Free Energies=         -445.108748

                     E (Thermal)             CV                S
                      KCal/Mol        Cal/Mol-Kelvin    Cal/Mol-Kelvin
 Total                  162.878             42.121            101.262
 Electronic               0.000              0.000              0.000
 Translational            0.889              2.981             40.929
 Rotational               0.889              2.981             30.529
 Vibrational            161.100             36.159             29.804
 Vibration     1          0.598              1.969              4.210
 Vibration     2          0.601              1.959              3.762
 Vibration     3          0.603              1.953              3.564
 Vibration     4          0.634              1.853              2.222
 Vibration     5          0.649              1.806              1.935
 Vibration     6          0.657              1.781              1.811
 Vibration     7          0.662              1.764              1.734
 Vibration     8          0.676              1.721              1.571
 Vibration     9          0.721              1.593              1.207
 Vibration    10          0.758              1.490              0.997
 Vibration    11          0.776              1.444              0.920
 Vibration    12          0.781              1.431              0.899
 Vibration    13          0.833              1.303              0.720
 Vibration    14          0.866              1.225              0.630
 Vibration    15          0.962              1.024              0.443

 Optimization completed.
    -- Stationary point found.
 Normal termination of Gaussian 16 at Sun Jul 18 14:57:23 2021.

 ----------------------------------------------------------------------
 #p b3lyp/6-31G(d) scrf=(iefpcm,read,solvent=n-octanol) geom=allcheck g
 uess=read
 ----------------------------------------------------------------------

 Structure from the checkpoint file:  "SET_328_BBB30_conf1.geo_105_180_285.chk"
 --------------------------------------------
 SET_328_BBB30_conf1.geo_105_180_285 geometry
 --------------------------------------------
 Charge =  1 Multiplicity = 1

 SCF Done:  E(RB3LYP) =  -445.325198789     A.U. after    1 cycles
 Normal termination of Gaussian 16 at Sun Jul 18 14:57:53 2021.

 -----------------------------
 #p B3LYP/6-31G* geom=allcheck
 -----------------------------

 Structure from the checkpoint file:  "SET_328_BBB30_conf1.geo_105_180_285.chk"
 --------------------------------------------
 SET_328_BBB30_conf1.geo_105_180_285 geometry
 --------------------------------------------
 Charge =  1 Multiplicity = 1

 SCF Done:  E(RB3LYP) =  -445.225411222     A.U. after   13 cycles
 Normal termination of Gaussian 16 at Sun Jul 18 14:59:06 2021.
 Gaussian 16:  ES64L-G16RevA.03 25-Dec-2016

 --------------------------------------------------------
 #p mp2/aug-cc-pVDZ scf=tight maxdisk=180GB geom=allcheck
 --------------------------------------------------------

 Structure from the checkpoint file:  "SET_328_BBB30_conf1.geo_105_180_285.chk"
 --------------------------------------------
 SET_328_BBB30_conf1.geo_105_180_285 geometry
 --------------------------------------------
 Charge =  1 Multiplicity = 1

                         Standard orientation:
 ---------------------------------------------------------------------
 Center     Atomic      Atomic             Coordinates (Angstroms)
 Number     Number       Type             X           Y           Z
 ---------------------------------------------------------------------
      1          6           0        3.535580   -1.234755   -0.222556
      2          1           0        2.983604   -1.676833   -1.047892
      3          1           0        3.363277   -1.796789    0.693167
      4          1           0        4.597471   -1.211059   -0.456875
      5          7           0        3.063810    0.171857   -0.008761
      6          1           0        3.248172    0.738546   -0.852414
      7          6           0        1.593689    0.296756    0.386229
      8          6           0        1.344826    1.685564    0.961244
      9          1           0        1.541778    2.467272    0.222601
     10          1           0        1.961782    1.869441    1.841792
     11          1           0        0.298997    1.761063    1.261638
     12          1           0        1.456721   -0.458167    1.164534
     13          6           0        0.699965   -0.035623   -0.820131
     14          1           0        1.011912   -0.988729   -1.257439
     15          1           0        0.843502    0.733022   -1.585856
     16          6           0       -0.764085   -0.112819   -0.441732
     17          6           0       -1.631976    0.948031   -0.723516
     18          1           0       -1.252182    1.827335   -1.236276
     19          6           0       -2.976995    0.885336   -0.358863
     20          1           0       -3.635277    1.717048   -0.585938
     21          6           0       -3.472794   -0.244367    0.291776
     22          1           0       -4.518923   -0.295943    0.574271
     23          6           0       -2.617227   -1.311246    0.571999
     24          1           0       -2.996551   -2.197162    1.069772
     25          6           0       -1.273437   -1.245092    0.206734
     26          1           0       -0.618452   -2.083814    0.420676
     27          1           0        3.642230    0.601064    0.728461
 ---------------------------------------------------------------------

 SCF Done:  E(RHF) =  -442.291651937     A.U. after   15 cycles
 E2 =    -0.1585723559D+01 EUMP2 =    -0.44387737549564D+03

 The electronic state is 1-A.
 Alpha  occ. eigenvalues --  -15.87260 -11.46406 -11.46360 -11.39397 -11.38431
 Alpha  occ. eigenvalues --  -11.36709 -11.35210 -11.35065 -11.34639 -11.34550
 Alpha  occ. eigenvalues --  -11.34272  -1.49154  -1.27646  -1.23171  -1.16003
 Alpha  occ. eigenvalues --   -1.12426  -1.12417  -1.08176  -1.00520  -0.94921
 Alpha  occ. eigenvalues --   -0.93824  -0.90471  -0.85243  -0.83714  -0.80381
 Alpha  occ. eigenvalues --   -0.78756  -0.75285  -0.74734  -0.74069  -0.73884
 Alpha  occ. eigenvalues --   -0.70191  -0.69335  -0.68882  -0.68079  -0.66411
 Alpha  occ. eigenvalues --   -0.65280  -0.60297  -0.60117  -0.59753  -0.44300
 Alpha  occ. eigenvalues --   -0.44070
 Alpha virt. eigenvalues --   -0.09349  -0.07124  -0.06544  -0.05516  -0.03965
 Alpha virt. eigenvalues --   -0.03695  -0.03430  -0.03282  -0.03067  -0.01607
 Alpha virt. eigenvalues --   -0.01395  -0.00580  -0.00515  -0.00172   0.00120

 Mulliken charges:
               1
     1  C    0.827458
     2  H   -0.067795
     3  H   -0.058837
     4  H   -0.147037
     5  N   -0.494934
     6  H    0.188423
     7  C   -0.270863
     8  C    0.779104
     9  H   -0.003331
    10  H   -0.104222
    11  H    0.023618
    12  H   -0.456956
    13  C    0.845934
    14  H   -0.296053
    15  H   -0.203338
    16  C    1.177608
    17  C    0.374880
    18  H   -0.685037
    19  C    0.227915
    20  H   -0.441579
    21  C    0.649722
    22  H   -0.419158
    23  C    0.034710
    24  H   -0.456558
    25  C    0.506849
    26  H   -0.704163
    27  H    0.173640
 Sum of Mulliken charges =   1.00000

 Dipole moment (field-independent basis, Debye):
    X=             11.0023    Y=              0.3385    Z=              0.2555  Tot=             11.0105
 Quadrupole moment (field-independent basis, Debye-Ang):
   XX=            -13.6061   YY=            -57.1247   ZZ=            -65.1895
   XY=             -1.3094   XZ=             -2.0741   YZ=             -2.4395

 Normal termination of Gaussian 16 at Sun Jul 18 15:13:14 2021.
