 Gaussian 16, Revision A.03,

 ---------------------------------------------------------------
 #p b3lyp/6-31G(d) opt freq scrf=(iefpcm,read,solvent=n-octanol)
 ---------------------------------------------------------------

 --------------------------------------------
 SET_328_BBB30_conf1.geo_285_180_285 geometry
 --------------------------------------------
 Symbolic Z-matrix:
 Charge =  1 Multiplicity = 1

 SCF Done:  E(RB3LYP) =  -445.277553935     A.U. after   12 cycles
 SCF Done:  E(RB3LYP) =  -445.306357507     A.U. after   11 cycles
 SCF Done:  E(RB3LYP) =  -445.305300277     A.U. after   11 cycles
 SCF Done:  E(RB3LYP) =  -445.319465821     A.U. after   10 cycles
 SCF Done:  E(RB3LYP) =  -445.320343784     A.U. after   10 cycles
 SCF Done:  E(RB3LYP) =  -445.320632415     A.U. after   10 cycles
 SCF Done:  E(RB3LYP) =  -445.320807040     A.U. after    9 cycles
 SCF Done:  E(RB3LYP) =  -445.320922158     A.U. after    9 cycles
 SCF Done:  E(RB3LYP) =  -445.320993413     A.U. after    9 cycles
 SCF Done:  E(RB3LYP) =  -445.321038871     A.U. after    9 cycles
 SCF Done:  E(RB3LYP) =  -445.321084085     A.U. after    9 cycles
 SCF Done:  E(RB3LYP) =  -445.321090234     A.U. after    8 cycles
 SCF Done:  E(RB3LYP) =  -445.321096266     A.U. after    8 cycles
 SCF Done:  E(RB3LYP) =  -445.321101822     A.U. after    7 cycles
 SCF Done:  E(RB3LYP) =  -445.321103401     A.U. after    7 cycles
 SCF Done:  E(RB3LYP) =  -445.321107098     A.U. after    7 cycles
 Optimization completed.
    -- Stationary point found.
 Normal termination of Gaussian 16 at Sun Jul 18 15:00:38 2021.

 --------------------------------------------------------------------
 #P Geom=AllCheck Guess=TCheck SCRF=Check GenChk RB3LYP/6-31G(d) Freq
 --------------------------------------------------------------------

 Structure from the checkpoint file:  "SET_328_BBB30_conf1.geo_285_180_285.chk"
 --------------------------------------------
 SET_328_BBB30_conf1.geo_285_180_285 geometry
 --------------------------------------------
 Charge =  1 Multiplicity = 1

 SCF Done:  E(RB3LYP) =  -445.321107098     A.U. after    1 cycles

  Exact polarizability: 163.907  -5.011 127.753 -12.142 -19.214  87.945
 Approx polarizability: 186.843  -7.733 164.204 -17.055 -30.247 111.550

                      1                      2                      3
                      A                      A                      A
 Frequencies --     68.4230                85.5493                94.7333
 Red. masses --      3.2543                 3.2983                 3.5758
 Frc consts  --      0.0090                 0.0142                 0.0189
 IR Inten    --      0.0182                 3.0693                 2.1154

                      4                      5                      6
                      A                      A                      A
 Frequencies --    188.9866               222.6489               238.5444
 Red. masses --      1.5229                 1.4722                 1.3090
 Frc consts  --      0.0320                 0.0430                 0.0439
 IR Inten    --      1.9982                 0.7945                 1.3740

                      7                      8                      9
                      A                      A                      A
 Frequencies --    246.6697               271.5423               338.7361
 Red. masses --      3.4232                 2.0459                 2.2466
 Frc consts  --      0.1227                 0.0889                 0.1519
 IR Inten    --      3.6269                 7.7922                 2.3412

                     10                     11                     12
                      A                      A                      A
 Frequencies --    388.7786               408.8010               418.0144
 Red. masses --      2.6777                 2.0645                 2.9565
 Frc consts  --      0.2385                 0.2033                 0.3044
 IR Inten    --      5.5203                 3.3172                 0.0377

                     13                     14                     15
                      A                      A                      A
 Frequencies --    475.8913               510.5264               603.3448
 Red. masses --      2.7353                 2.9532                 4.4872
 Frc consts  --      0.3650                 0.4535                 0.9624
 IR Inten    --      3.9418                 6.0459                 4.0132

                     16                     17                     18
                      A                      A                      A
 Frequencies --    635.5589               716.7014               757.6187
 Red. masses --      6.2756                 2.0614                 1.6981
 Frc consts  --      1.4935                 0.6239                 0.5743
 IR Inten    --      0.0565                26.8939                47.5146

                     19                     20                     21
                      A                      A                      A
 Frequencies --    811.9959               829.8744               864.8074
 Red. masses --      2.5063                 2.4825                 1.2490
 Frc consts  --      0.9736                 1.0073                 0.5504
 IR Inten    --      6.3131                 3.5788                 0.0214

                     22                     23                     24
                      A                      A                      A
 Frequencies --    882.5833               896.9070               924.3320
 Red. masses --      1.3754                 2.1183                 1.4122
 Frc consts  --      0.6312                 1.0040                 0.7109
 IR Inten    --     19.5119                 4.0525                 1.3225

                     25                     26                     27
                      A                      A                      A
 Frequencies --    939.5908               976.6004              1007.3522
 Red. masses --      1.4379                 1.3537                 1.2645
 Frc consts  --      0.7479                 0.7607                 0.7560
 IR Inten    --      2.7376                 0.0534                 0.1840

                     28                     29                     30
                      A                      A                      A
 Frequencies --   1018.6419              1024.8725              1050.5234
 Red. masses --      6.0855                 4.8240                 1.4924
 Frc consts  --      3.7204                 2.9854                 0.9704
 IR Inten    --      2.8799                17.6325                37.9371

                     31                     32                     33
                      A                      A                      A
 Frequencies --   1057.4887              1081.1751              1109.0194
 Red. masses --      2.2148                 1.7249                 1.6617
 Frc consts  --      1.4593                 1.1880                 1.2041
 IR Inten    --      1.0569                 6.5446                21.0639

                     34                     35                     36
                      A                      A                      A
 Frequencies --   1127.4753              1169.3180              1193.8605
 Red. masses --      1.5116                 1.3811                 1.0977
 Frc consts  --      1.1321                 1.1126                 0.9218
 IR Inten    --     15.6290                 4.0540                 0.0318

                     37                     38                     39
                      A                      A                      A
 Frequencies --   1209.3440              1221.6945              1236.3144
 Red. masses --      1.1348                 1.7651                 2.4481
 Frc consts  --      0.9779                 1.5522                 2.2047
 IR Inten    --      0.3871                 8.0396                 0.1953

                     40                     41                     42
                      A                      A                      A
 Frequencies --   1270.9655              1347.9298              1361.5617
 Red. masses --      1.5599                 1.3760                 1.6222
 Frc consts  --      1.4846                 1.4730                 1.7719
 IR Inten    --      5.7597                 1.0344                 0.7089

                     43                     44                     45
                      A                      A                      A
 Frequencies --   1366.8180              1385.2968              1396.1960
 Red. masses --      2.8232                 1.3296                 1.2875
 Frc consts  --      3.1075                 1.5033                 1.4787
 IR Inten    --      0.6119                 0.8604                 5.2346

                     46                     47                     48
                      A                      A                      A
 Frequencies --   1440.6346              1457.0842              1464.5680
 Red. masses --      1.2751                 1.1302                 1.1580
 Frc consts  --      1.5593                 1.4138                 1.4634
 IR Inten    --     19.1973                11.9672                16.2234

                     49                     50                     51
                      A                      A                      A
 Frequencies --   1499.1517              1503.0227              1512.1842
 Red. masses --      1.2513                 1.8513                 1.0859
 Frc consts  --      1.6570                 2.4642                 1.4630
 IR Inten    --     30.5610                14.1316                 8.3649

                     52                     53                     54
                      A                      A                      A
 Frequencies --   1518.5694              1526.4250              1531.5859
 Red. masses --      1.0474                 1.0624                 1.0889
 Frc consts  --      1.4231                 1.4585                 1.5049
 IR Inten    --      6.6380                63.0398                 3.6655

                     55                     56                     57
                      A                      A                      A
 Frequencies --   1539.3350              1546.5374              1648.2733
 Red. masses --      1.0933                 2.2517                 5.5009
 Frc consts  --      1.5263                 3.1731                 8.8052
 IR Inten    --     30.3580                14.8205                 1.7042

                     58                     59                     60
                      A                      A                      A
 Frequencies --   1667.5693              1676.4224              3074.3571
 Red. masses --      5.7219                 1.0687                 1.0598
 Frc consts  --      9.3748                 1.7696                 5.9018
 IR Inten    --      3.0767               112.2018                32.6779

                     61                     62                     63
                      A                      A                      A
 Frequencies --   3086.8330              3111.5608              3126.1690
 Red. masses --      1.0406                 1.0934                 1.0876
 Frc consts  --      5.8422                 6.2370                 6.2626
 IR Inten    --     13.4918                 2.3001                19.2517

                     64                     65                     66
                      A                      A                      A
 Frequencies --   3129.8111              3161.2646              3185.8118
 Red. masses --      1.0392                 1.1006                 1.0893
 Frc consts  --      5.9979                 6.4807                 6.5136
 IR Inten    --     17.2110                25.6350                15.6763

                     67                     68                     69
                      A                      A                      A
 Frequencies --   3186.2688              3202.6553              3210.8200
 Red. masses --      1.1017                 1.0865                 1.0894
 Frc consts  --      6.5897                 6.5660                 6.6168
 IR Inten    --     13.2710                 6.6884                 9.2488

                     70                     71                     72
                      A                      A                      A
 Frequencies --   3220.4678              3223.0442              3230.9517
 Red. masses --      1.0936                 1.1093                 1.0978
 Frc consts  --      6.6825                 6.7896                 6.7523
 IR Inten    --     44.0962                 3.7431                23.1598

                     73                     74                     75
                      A                      A                      A
 Frequencies --   3232.6808              3376.3495              3464.8483
 Red. masses --      1.1086                 1.0655                 1.0843
 Frc consts  --      6.8255                 7.1565                 7.6693
 IR Inten    --      4.9696               133.2378               155.0839

 - Thermochemistry -
 -------------------
 Temperature   298.150 Kelvin.  Pressure   1.00000 Atm.
 Atom     1 has atomic number  6 and mass  12.00000

 Molecular mass:   150.12827 amu.
 Principal axes and moments of inertia in atomic units:
                           1         2         3
     Eigenvalues --   739.194183231.755043581.98468
           X            0.99998  -0.00616  -0.00239
           Y            0.00616   0.99998  -0.00018
           Z            0.00239   0.00016   1.00000
 This molecule is an asymmetric top.
 Rotational symmetry number  1.
 Warning -- assumption of classical behavior for rotation
           may cause significant error
 Rotational temperatures (Kelvin)      0.11717     0.02680     0.02418
 Rotational constants (GHZ):           2.44150     0.55844     0.50384
 Zero-point vibrational energy     653094.4 (Joules/Mol)
                                  156.09332 (Kcal/Mol)
 Warning -- explicit consideration of  15 degrees of freedom as
           vibrations may cause significant error
 Vibrational temperatures:     98.45   123.09   136.30   271.91   320.34
          (Kelvin)            343.21   354.90   390.69   487.37   559.37
                              588.17   601.43   684.70   734.53   868.08
                              914.43  1031.17  1090.04  1168.28  1194.00
                             1244.27  1269.84  1290.45  1329.91  1351.86
                             1405.11  1449.36  1465.60  1474.56  1511.47
                             1521.49  1555.57  1595.63  1622.19  1682.39
                             1717.70  1739.98  1757.75  1778.78  1828.64
                             1939.37  1958.98  1966.55  1993.13  2008.81
                             2072.75  2096.42  2107.19  2156.94  2162.51
                             2175.70  2184.88  2196.19  2203.61  2214.76
                             2225.12  2371.50  2399.26  2412.00  4423.31
                             4441.26  4476.84  4497.86  4503.10  4548.35
                             4583.67  4584.33  4607.91  4619.65  4633.53
                             4637.24  4648.62  4651.11  4857.81  4985.14

 Zero-point correction=                           0.248751 (Hartree/Particle)
 Thermal correction to Energy=                    0.259576
 Thermal correction to Enthalpy=                  0.260520
 Thermal correction to Gibbs Free Energy=         0.212372
 Sum of electronic and zero-point Energies=           -445.072357
 Sum of electronic and thermal Energies=              -445.061531
 Sum of electronic and thermal Enthalpies=            -445.060587
 Sum of electronic and thermal Free Energies=         -445.108735

                     E (Thermal)             CV                S
                      KCal/Mol        Cal/Mol-Kelvin    Cal/Mol-Kelvin
 Total                  162.886             42.166            101.336
 Electronic               0.000              0.000              0.000
 Translational            0.889              2.981             40.929
 Rotational               0.889              2.981             30.527
 Vibrational            161.109             36.204             29.880
 Vibration     1          0.598              1.969              4.198
 Vibration     2          0.601              1.959              3.759
 Vibration     3          0.603              1.953              3.560
 Vibration     4          0.633              1.855              2.238
 Vibration     5          0.648              1.807              1.937
 Vibration     6          0.657              1.782              1.814
 Vibration     7          0.661              1.768              1.754
 Vibration     8          0.675              1.726              1.586
 Vibration     9          0.719              1.598              1.218
 Vibration    10          0.757              1.494              1.005
 Vibration    11          0.773              1.451              0.931
 Vibration    12          0.781              1.431              0.899
 Vibration    13          0.833              1.304              0.721
 Vibration    14          0.866              1.227              0.632
 Vibration    15          0.962              1.025              0.444

 Optimization completed.
    -- Stationary point found.
 Normal termination of Gaussian 16 at Sun Jul 18 15:15:45 2021.

 ----------------------------------------------------------------------
 #p b3lyp/6-31G(d) scrf=(iefpcm,read,solvent=n-octanol) geom=allcheck g
 uess=read
 ----------------------------------------------------------------------

 Structure from the checkpoint file:  "SET_328_BBB30_conf1.geo_285_180_285.chk"
 --------------------------------------------
 SET_328_BBB30_conf1.geo_285_180_285 geometry
 --------------------------------------------
 Charge =  1 Multiplicity = 1

 SCF Done:  E(RB3LYP) =  -445.325163469     A.U. after    1 cycles
 Normal termination of Gaussian 16 at Sun Jul 18 15:16:16 2021.

 -----------------------------
 #p B3LYP/6-31G* geom=allcheck
 -----------------------------

 Structure from the checkpoint file:  "SET_328_BBB30_conf1.geo_285_180_285.chk"
 --------------------------------------------
 SET_328_BBB30_conf1.geo_285_180_285 geometry
 --------------------------------------------
 Charge =  1 Multiplicity = 1

 SCF Done:  E(RB3LYP) =  -445.225399662     A.U. after   13 cycles
 Normal termination of Gaussian 16 at Sun Jul 18 15:17:28 2021.
 Gaussian 16:  ES64L-G16RevA.03 25-Dec-2016

 --------------------------------------------------------
 #p mp2/aug-cc-pVDZ scf=tight maxdisk=180GB geom=allcheck
 --------------------------------------------------------

 Structure from the checkpoint file:  "SET_328_BBB30_conf1.geo_285_180_285.chk"
 --------------------------------------------
 SET_328_BBB30_conf1.geo_285_180_285 geometry
 --------------------------------------------
 Charge =  1 Multiplicity = 1

                         Standard orientation:
 ---------------------------------------------------------------------
 Center     Atomic      Atomic             Coordinates (Angstroms)
 Number     Number       Type             X           Y           Z
 ---------------------------------------------------------------------
      1          6           0        3.537186   -1.231810   -0.222595
      2          1           0        2.986537   -1.672899   -1.049364
      3          1           0        3.364429   -1.795818    0.691797
      4          1           0        4.599310   -1.206464   -0.455733
      5          7           0        3.063416    0.173728   -0.006723
      6          1           0        3.248755    0.742422   -0.848782
      7          6           0        1.592604    0.295492    0.385462
      8          6           0        1.339416    1.681891    0.963782
      9          1           0        1.947323    1.862453    1.851499
     10          1           0        0.291244    1.753081    1.252800
     11          1           0        1.542105    2.467722    0.229773
     12          1           0        1.455017   -0.461865    1.161336
     13          6           0        0.700096   -0.033343   -0.822576
     14          1           0        1.013277   -0.983862   -1.264618
     15          1           0        0.840903    0.739622   -1.584545
     16          6           0       -0.763282   -0.113055   -0.442810
     17          6           0       -1.271860   -1.245656    0.205222
     18          1           0       -0.615890   -2.085770    0.418537
     19          6           0       -2.615283   -1.311945    0.571219
     20          1           0       -2.994332   -2.198227    1.068632
     21          6           0       -3.471107   -0.244948    0.292422
     22          1           0       -4.516951   -0.296899    0.575904
     23          6           0       -2.976062    0.885286   -0.358108
     24          1           0       -3.634437    1.717117   -0.584224
     25          6           0       -1.631350    0.947649   -0.723709
     26          1           0       -1.250598    1.825380   -1.236352
     27          1           0        3.637245    0.600523    0.730553
 ---------------------------------------------------------------------

 SCF Done:  E(RHF) =  -442.291735334     A.U. after   15 cycles
 E2 =    -0.1585657752D+01 EUMP2 =    -0.44387739308603D+03

 The electronic state is 1-A.
 Alpha  occ. eigenvalues --  -15.87235 -11.46408 -11.46352 -11.39393 -11.38417
 Alpha  occ. eigenvalues --  -11.36703 -11.35228 -11.35055 -11.34644 -11.34558
 Alpha  occ. eigenvalues --  -11.34279  -1.49210  -1.27667  -1.23186  -1.16007
 Alpha  occ. eigenvalues --   -1.12440  -1.12434  -1.08173  -1.00530  -0.94986
 Alpha  occ. eigenvalues --   -0.93835  -0.90493  -0.85248  -0.83730  -0.80385
 Alpha  occ. eigenvalues --   -0.78757  -0.75293  -0.74739  -0.74079  -0.73905
 Alpha  occ. eigenvalues --   -0.70187  -0.69339  -0.68886  -0.68083  -0.66402
 Alpha  occ. eigenvalues --   -0.65280  -0.60306  -0.60125  -0.59756  -0.44311
 Alpha  occ. eigenvalues --   -0.44076
 Alpha virt. eigenvalues --   -0.09344  -0.07123  -0.06542  -0.05515  -0.03965
 Alpha virt. eigenvalues --   -0.03695  -0.03430  -0.03281  -0.03067  -0.01610
 Alpha virt. eigenvalues --   -0.01395  -0.00579  -0.00509  -0.00173   0.00120

 Mulliken charges:
               1
     1  C    0.826835
     2  H   -0.068122
     3  H   -0.058663
     4  H   -0.146868
     5  N   -0.485057
     6  H    0.188617
     7  C   -0.280343
     8  C    0.782938
     9  H   -0.102481
    10  H    0.020341
    11  H    0.000065
    12  H   -0.456119
    13  C    0.852674
    14  H   -0.295658
    15  H   -0.202084
    16  C    1.169614
    17  C    0.497463
    18  H   -0.700441
    19  C    0.036368
    20  H   -0.456592
    21  C    0.652084
    22  H   -0.419202
    23  C    0.223980
    24  H   -0.440996
    25  C    0.383404
    26  H   -0.688275
    27  H    0.166517
 Sum of Mulliken charges =   1.00000

 Dipole moment (field-independent basis, Debye):
    X=             10.9944    Y=              0.3412    Z=              0.2575  Tot=             11.0027
 Quadrupole moment (field-independent basis, Debye-Ang):
   XX=            -13.6360   YY=            -57.1364   ZZ=            -65.1893
   XY=             -1.3017   XZ=             -2.0714   YZ=             -2.4455

 Normal termination of Gaussian 16 at Sun Jul 18 15:30:45 2021.
