 Gaussian 16, Revision A.03,

 ---------------------------------------------------------------
 #p b3lyp/6-31G(d) opt freq scrf=(iefpcm,read,solvent=n-octanol)
 ---------------------------------------------------------------

 ---------------------------------------------
 SET_328_BBB256_conf1.geo_075_180_090 geometry
 ---------------------------------------------
 Symbolic Z-matrix:
 Charge =  1 Multiplicity = 1

 SCF Done:  E(RB3LYP) =  -422.024177120     A.U. after   12 cycles
 SCF Done:  E(RB3LYP) =  -422.040623914     A.U. after   11 cycles
 SCF Done:  E(RB3LYP) =  -422.031076591     A.U. after   11 cycles
 SCF Done:  E(RB3LYP) =  -422.044532012     A.U. after   11 cycles
 SCF Done:  E(RB3LYP) =  -422.044661015     A.U. after   11 cycles
 SCF Done:  E(RB3LYP) =  -422.044965831     A.U. after   11 cycles
 SCF Done:  E(RB3LYP) =  -422.045083959     A.U. after   10 cycles
 SCF Done:  E(RB3LYP) =  -422.045279195     A.U. after   10 cycles
 SCF Done:  E(RB3LYP) =  -422.044976262     A.U. after   10 cycles
 SCF Done:  E(RB3LYP) =  -422.045051702     A.U. after   10 cycles
 SCF Done:  E(RB3LYP) =  -422.045066486     A.U. after    8 cycles
 SCF Done:  E(RB3LYP) =  -422.045019039     A.U. after   10 cycles
 SCF Done:  E(RB3LYP) =  -422.045083162     A.U. after   10 cycles
 SCF Done:  E(RB3LYP) =  -422.045061112     A.U. after   10 cycles
 SCF Done:  E(RB3LYP) =  -422.045060847     A.U. after    8 cycles
 SCF Done:  E(RB3LYP) =  -422.045082513     A.U. after   10 cycles
 Optimization completed.
    -- Stationary point found.
 Normal termination of Gaussian 16 at Sun Jul 18 14:04:33 2021.

 --------------------------------------------------------------------
 #P Geom=AllCheck Guess=TCheck SCRF=Check GenChk RB3LYP/6-31G(d) Freq
 --------------------------------------------------------------------

 Structure from the checkpoint file:  "SET_328_BBB256_conf1.geo_075_180_090.chk"
 ---------------------------------------------
 SET_328_BBB256_conf1.geo_075_180_090 geometry
 ---------------------------------------------
 Charge =  1 Multiplicity = 1

 SCF Done:  E(RB3LYP) =  -422.045082513     A.U. after    1 cycles

  Exact polarizability: 144.295  -3.473 115.491  -5.865   2.719  63.501
 Approx polarizability: 166.113  -1.808 155.597  -8.870   3.777  79.004

                      1                      2                      3
                      A                      A                      A
 Frequencies --     30.5578                58.3084               121.0334
 Red. masses --      3.4282                 3.2365                 2.9731
 Frc consts  --      0.0019                 0.0065                 0.0257
 IR Inten    --      4.7826                 2.2849                13.1659

                      4                      5                      6
                      A                      A                      A
 Frequencies --    151.0761               220.8080               261.7547
 Red. masses --      1.7236                 1.6217                 2.1760
 Frc consts  --      0.0232                 0.0466                 0.0878
 IR Inten    --      0.7159                 2.2383                 7.0370

                      7                      8                      9
                      A                      A                      A
 Frequencies --    292.2282               370.2072               418.8654
 Red. masses --      2.6031                 2.6656                 3.5432
 Frc consts  --      0.1310                 0.2152                 0.3663
 IR Inten    --     11.9314                 0.9539                 5.1736

                     10                     11                     12
                      A                      A                      A
 Frequencies --    427.3137               506.1965               619.3984
 Red. masses --      2.7495                 2.9404                 5.5424
 Frc consts  --      0.2958                 0.4439                 1.2528
 IR Inten    --      3.3093                 5.3700                 4.6300

                     13                     14                     15
                      A                      A                      A
 Frequencies --    649.5944               760.0562               775.6052
 Red. masses --      5.6082                 2.9006                 1.1974
 Frc consts  --      1.3943                 0.9873                 0.4244
 IR Inten    --      3.5226                 1.0063                37.7038

                     16                     17                     18
                      A                      A                      A
 Frequencies --    797.2458               850.6864               856.2347
 Red. masses --      1.4822                 3.9566                 1.5066
 Frc consts  --      0.5550                 1.6870                 0.6508
 IR Inten    --     16.5583                 2.1568                24.1436

                     19                     20                     21
                      A                      A                      A
 Frequencies --    913.2655               926.8705               985.1185
 Red. masses --      1.4097                 1.8901                 1.4071
 Frc consts  --      0.6927                 0.9567                 0.8046
 IR Inten    --      3.0385                 5.6500                 0.1395

                     22                     23                     24
                      A                      A                      A
 Frequencies --   1009.1507              1017.8327              1019.1115
 Red. masses --      3.2573                 3.9374                 1.3109
 Frc consts  --      1.9544                 2.4033                 0.8021
 IR Inten    --     31.2432                 3.8319                 0.0464

                     25                     26                     27
                      A                      A                      A
 Frequencies --   1053.5977              1071.6440              1078.7721
 Red. masses --      1.9919                 2.4794                 2.2656
 Frc consts  --      1.3028                 1.6777                 1.5534
 IR Inten    --     14.4031                11.1542                13.2944

                     28                     29                     30
                      A                      A                      A
 Frequencies --   1122.8389              1162.7845              1184.7555
 Red. masses --      1.4715                 1.2861                 1.1207
 Frc consts  --      1.0931                 1.0245                 0.9269
 IR Inten    --      0.4176                11.3884                 4.7743

                     31                     32                     33
                      A                      A                      A
 Frequencies --   1196.0445              1247.9740              1278.2009
 Red. masses --      1.4570                 2.2412                 1.5741
 Frc consts  --      1.2280                 2.0566                 1.5153
 IR Inten    --      6.1386                11.8710                 1.7135

                     34                     35                     36
                      A                      A                      A
 Frequencies --   1312.5534              1334.7978              1338.9872
 Red. masses --      3.2414                 1.5360                 1.3148
 Frc consts  --      3.2901                 1.6124                 1.3888
 IR Inten    --      0.4999                 6.1156                 2.5881

                     37                     38                     39
                      A                      A                      A
 Frequencies --   1371.1967              1411.9530              1459.5425
 Red. masses --      1.2942                 1.3054                 1.1889
 Frc consts  --      1.4337                 1.5333                 1.4922
 IR Inten    --      0.9238                 5.3923                 5.9968

                     40                     41                     42
                      A                      A                      A
 Frequencies --   1468.0461              1485.3549              1496.5433
 Red. masses --      1.1880                 2.1882                 1.2604
 Frc consts  --      1.5085                 2.8444                 1.6631
 IR Inten    --      6.6248                41.3643                30.5862

                     43                     44                     45
                      A                      A                      A
 Frequencies --   1511.0151              1515.1039              1521.8486
 Red. masses --      1.1028                 1.0509                 1.7393
 Frc consts  --      1.4835                 1.4214                 2.3734
 IR Inten    --      1.0220                13.4267                20.5370

                     46                     47                     48
                      A                      A                      A
 Frequencies --   1523.9085              1531.8095              1635.8412
 Red. masses --      1.2062                 1.0906                 5.8165
 Frc consts  --      1.6504                 1.5077                 9.1705
 IR Inten    --     41.9335                42.5395                20.9793

                     49                     50                     51
                      A                      A                      A
 Frequencies --   1653.0871              1676.9027              3082.2732
 Red. masses --      5.4732                 1.0692                 1.0631
 Frc consts  --      8.8122                 1.7715                 5.9509
 IR Inten    --     67.3430               129.4773                17.5133

                     52                     53                     54
                      A                      A                      A
 Frequencies --   3130.1221              3131.0876              3138.7848
 Red. masses --      1.0571                 1.0363                 1.0980
 Frc consts  --      6.1025                 5.9856                 6.3736
 IR Inten    --      5.4637                 8.7982                17.2590

                     55                     56                     57
                      A                      A                      A
 Frequencies --   3191.5322              3200.5428              3217.9339
 Red. masses --      1.1091                 1.0896                 1.0883
 Frc consts  --      6.6563                 6.5762                 6.6395
 IR Inten    --      6.5325                32.9153                 6.3832

                     58                     59                     60
                      A                      A                      A
 Frequencies --   3226.0942              3232.7946              3234.3113
 Red. masses --      1.1091                 1.0937                 1.1089
 Frc consts  --      6.8009                 6.7346                 6.8343
 IR Inten    --      3.2602                19.6668                 5.2348

                     61                     62                     63
                      A                      A                      A
 Frequencies --   3246.5897              3376.7696              3434.3991
 Red. masses --      1.0967                 1.0645                 1.0894
 Frc consts  --      6.8108                 7.1512                 7.5705
 IR Inten    --     16.2758               164.1457               156.5586

 - Thermochemistry -
 -------------------
 Temperature   298.150 Kelvin.  Pressure   1.00000 Atm.
 Atom     1 has atomic number  6 and mass  12.00000

 Molecular mass:   137.10787 amu.
 Principal axes and moments of inertia in atomic units:
                           1         2         3
     Eigenvalues --   471.267402938.777573208.60564
           X            0.99999   0.00352  -0.00380
           Y           -0.00351   0.99999   0.00289
           Z            0.00381  -0.00288   0.99999
 This molecule is an asymmetric top.
 Rotational symmetry number  1.
 Warning -- assumption of classical behavior for rotation
           may cause significant error
 Rotational temperatures (Kelvin)      0.18379     0.02947     0.02699
 Rotational constants (GHZ):           3.82955     0.61411     0.56247
 Zero-point vibrational energy     547452.2 (Joules/Mol)
                                  130.84421 (Kcal/Mol)
 Warning -- explicit consideration of  12 degrees of freedom as
           vibrations may cause significant error
 Vibrational temperatures:     43.97    83.89   174.14   217.36   317.69
          (Kelvin)            376.61   420.45   532.65   602.65   614.81
                              728.30   891.18   934.62  1093.55  1115.92
                             1147.06  1223.95  1231.93  1313.99  1333.56
                             1417.37  1451.94  1464.43  1466.27  1515.89
                             1541.86  1552.11  1615.51  1672.99  1704.60
                             1720.84  1795.56  1839.05  1888.47  1920.48
                             1926.50  1972.85  2031.49  2099.96  2112.19
                             2137.09  2153.19  2174.01  2179.90  2189.60
                             2192.56  2203.93  2353.61  2378.42  2412.69
                             4434.70  4503.55  4504.94  4516.01  4591.90
                             4604.87  4629.89  4641.63  4651.27  4653.45
                             4671.12  4858.42  4941.33

 Zero-point correction=                           0.208514 (Hartree/Particle)
 Thermal correction to Energy=                    0.218137
 Thermal correction to Enthalpy=                  0.219081
 Thermal correction to Gibbs Free Energy=         0.172394
 Sum of electronic and zero-point Energies=           -421.836569
 Sum of electronic and thermal Energies=              -421.826946
 Sum of electronic and thermal Enthalpies=            -421.826001
 Sum of electronic and thermal Free Energies=         -421.872688

                     E (Thermal)             CV                S
                      KCal/Mol        Cal/Mol-Kelvin    Cal/Mol-Kelvin
 Total                  136.883             35.744             98.260
 Electronic               0.000              0.000              0.000
 Translational            0.889              2.981             40.659
 Rotational               0.889              2.981             29.876
 Vibrational            135.105             29.783             27.726
 Vibration     1          0.594              1.984              5.793
 Vibration     2          0.596              1.974              4.514
 Vibration     3          0.609              1.932              3.084
 Vibration     4          0.618              1.901              2.659
 Vibration     5          0.648              1.809              1.952
 Vibration     6          0.669              1.743              1.650
 Vibration     7          0.688              1.688              1.461
 Vibration     8          0.742              1.533              1.079
 Vibration     9          0.782              1.429              0.896
 Vibration    10          0.789              1.411              0.867
 Vibration    11          0.861              1.236              0.643
 Vibration    12          0.979              0.991              0.417

                           ! Non-Optimized Parameters !
 Normal termination of Gaussian 16 at Sun Jul 18 14:14:21 2021.

 ----------------------------------------------------------------------
 #p b3lyp/6-31G(d) scrf=(iefpcm,read,solvent=n-octanol) geom=allcheck g
 uess=read
 ----------------------------------------------------------------------

 Structure from the checkpoint file:  "SET_328_BBB256_conf1.geo_075_180_090.chk"
 ---------------------------------------------
 SET_328_BBB256_conf1.geo_075_180_090 geometry
 ---------------------------------------------
 Charge =  1 Multiplicity = 1

 SCF Done:  E(RB3LYP) =  -422.049751243     A.U. after    1 cycles
 Normal termination of Gaussian 16 at Sun Jul 18 14:14:42 2021.

 -----------------------------
 #p B3LYP/6-31G* geom=allcheck
 -----------------------------

 Structure from the checkpoint file:  "SET_328_BBB256_conf1.geo_075_180_090.chk"
 ---------------------------------------------
 SET_328_BBB256_conf1.geo_075_180_090 geometry
 ---------------------------------------------
 Charge =  1 Multiplicity = 1

 SCF Done:  E(RB3LYP) =  -421.948697534     A.U. after   14 cycles
 Normal termination of Gaussian 16 at Sun Jul 18 14:15:37 2021.
 Gaussian 16:  ES64L-G16RevA.03 25-Dec-2016

 --------------------------------------------------------
 #p mp2/aug-cc-pVDZ scf=tight maxdisk=180GB geom=allcheck
 --------------------------------------------------------

 Structure from the checkpoint file:  "SET_328_BBB256_conf1.geo_075_180_090.chk"
 ---------------------------------------------
 SET_328_BBB256_conf1.geo_075_180_090 geometry
 ---------------------------------------------
 Charge =  1 Multiplicity = 1

                         Standard orientation:
 ---------------------------------------------------------------------
 Center     Atomic      Atomic             Coordinates (Angstroms)
 Number     Number       Type             X           Y           Z
 ---------------------------------------------------------------------
      1          6           0        3.700401    0.546660   -0.610694
      2          1           0        3.235499    0.225738   -1.539407
      3          1           0        4.773670    0.372806   -0.648857
      4          1           0        3.492209    1.598407   -0.427841
      5          7           0        3.126206   -0.247943    0.521439
      6          1           0        3.610470    0.007056    1.396414
      7          6           0        1.643149   -0.054567    0.714874
      8          1           0        1.462900    1.018913    0.767155
      9          1           0        1.397738   -0.498972    1.679824
     10          6           0        0.808237   -0.673155   -0.399272
     11          1           0        0.909237   -1.760176   -0.401251
     12          1           0        1.147481   -0.304108   -1.372699
     13          6           0       -0.646183   -0.294824   -0.211429
     14          7           0       -0.902545    1.019676   -0.113482
     15          6           0       -2.176213    1.396412    0.043773
     16          1           0       -2.351470    2.466011    0.117872
     17          6           0       -3.243778    0.500960    0.111316
     18          1           0       -4.255583    0.865133    0.238051
     19          6           0       -2.968830   -0.860535    0.015272
     20          1           0       -3.766682   -1.593348    0.066962
     21          6           0       -1.645419   -1.267118   -0.146536
     22          1           0       -1.385419   -2.316610   -0.224050
     23          1           0        3.336150   -1.245983    0.388310
 ---------------------------------------------------------------------

 SCF Done:  E(RHF) =  -419.251774119     A.U. after   15 cycles
 E2 =    -0.1457820728D+01 EUMP2 =    -0.42070959484658D+03

 The electronic state is 1-A.
 Alpha  occ. eigenvalues --  -15.87826 -15.68718 -11.46417 -11.45764 -11.40839
 Alpha  occ. eigenvalues --  -11.39713 -11.38967 -11.37096 -11.35810 -11.35063
 Alpha  occ. eigenvalues --   -1.49687  -1.37880  -1.22735  -1.19776  -1.15676
 Alpha  occ. eigenvalues --   -1.12348  -1.04047  -0.97223  -0.96100  -0.92692
 Alpha  occ. eigenvalues --   -0.88801  -0.83256  -0.80933  -0.79286  -0.76176
 Alpha  occ. eigenvalues --   -0.75505  -0.74778  -0.73771  -0.70304  -0.69477
 Alpha  occ. eigenvalues --   -0.67914  -0.67057  -0.63854  -0.62670  -0.53339
 Alpha  occ. eigenvalues --   -0.49031  -0.45268
 Alpha virt. eigenvalues --   -0.09818  -0.07133  -0.06622  -0.05555  -0.03842
 Alpha virt. eigenvalues --   -0.03542  -0.03377  -0.03129  -0.02242  -0.01771
 Alpha virt. eigenvalues --   -0.01492  -0.01237  -0.00365   0.00097   0.00300

 Mulliken charges:
               1
     1  C    0.825021
     2  H   -0.070978
     3  H   -0.120507
     4  H   -0.060523
     5  N   -0.591934
     6  H    0.164217
     7  C    0.946155
     8  H   -0.159826
     9  H   -0.179491
    10  C    0.420752
    11  H   -0.156949
    12  H   -0.048875
    13  C    0.078151
    14  N   -0.705371
    15  C    0.460893
    16  H   -0.354827
    17  C    0.934866
    18  H   -0.400017
    19  C   -0.214606
    20  H   -0.390409
    21  C    1.010074
    22  H   -0.553094
    23  H    0.167281
 Sum of Mulliken charges =   1.00000

 Dipole moment (field-independent basis, Debye):
    X=             10.2320    Y=             -1.9106    Z=              1.6286  Tot=             10.5355
 Quadrupole moment (field-independent basis, Debye-Ang):
   XX=              1.5201   YY=            -51.8227   ZZ=            -57.4797
   XY=             -1.6933   XZ=              3.5215   YZ=             -0.1055

 Normal termination of Gaussian 16 at Sun Jul 18 14:23:13 2021.
