 Gaussian 16, Revision A.03,

 ---------------------------------------------------------------
 #p b3lyp/6-31G(d) opt freq scrf=(iefpcm,read,solvent=n-octanol)
 ---------------------------------------------------------------

 ---------------------------------------------
 SET_328_BBB321_conf1.geo_195_210_120 geometry
 ---------------------------------------------
 Symbolic Z-matrix:
 Charge =  1 Multiplicity = 1

 SCF Done:  E(RB3LYP) =  -1212.50848781     A.U. after   17 cycles
 SCF Done:  E(RB3LYP) =  -1212.64302651     A.U. after   13 cycles
 SCF Done:  E(RB3LYP) =  -1212.71441847     A.U. after   14 cycles
 SCF Done:  E(RB3LYP) =  -1212.76099609     A.U. after   12 cycles
 SCF Done:  E(RB3LYP) =  -1212.78784105     A.U. after   13 cycles
 SCF Done:  E(RB3LYP) =  -1212.80011996     A.U. after   11 cycles
 SCF Done:  E(RB3LYP) =  -1212.80937111     A.U. after   13 cycles
 SCF Done:  E(RB3LYP) =  -1212.79710762     A.U. after   15 cycles
 SCF Done:  E(RB3LYP) =  -1212.81296836     A.U. after   12 cycles
 SCF Done:  E(RB3LYP) =  -1212.81595848     A.U. after   14 cycles
 SCF Done:  E(RB3LYP) =  -1212.81934440     A.U. after    9 cycles
 SCF Done:  E(RB3LYP) =  -1212.81935135     A.U. after    9 cycles
 SCF Done:  E(RB3LYP) =  -1212.81934207     A.U. after    9 cycles
 SCF Done:  E(RB3LYP) =  -1212.81935128     A.U. after    9 cycles
 SCF Done:  E(RB3LYP) =  -1212.81934005     A.U. after    9 cycles
 SCF Done:  E(RB3LYP) =  -1212.81935129     A.U. after    9 cycles
 Optimization completed.
    -- Stationary point found.
 Normal termination of Gaussian 16 at Sun Jul 18 18:43:48 2021.

 --------------------------------------------------------------------
 #P Geom=AllCheck Guess=TCheck SCRF=Check GenChk RB3LYP/6-31G(d) Freq
 --------------------------------------------------------------------

 Structure from the checkpoint file:  "SET_328_BBB321_conf1.geo_195_210_120.chk"
 ---------------------------------------------
 SET_328_BBB321_conf1.geo_195_210_120 geometry
 ---------------------------------------------
 Charge =  1 Multiplicity = 1

 SCF Done:  E(RB3LYP) =  -1212.81935129     A.U. after    1 cycles

  Exact polarizability: 357.511  -5.288 258.020   1.044   2.206  81.999
 Approx polarizability: 385.866 -18.497 356.007   1.547   3.933 109.894

 ******    1 imaginary frequencies (negative Signs) ******

                      1                      2                      3
                      A                      A                      A
 Frequencies --    -45.8258                37.3543                47.5744
 Red. masses --      1.3575                 5.7727                 6.4283
 Frc consts  --      0.0017                 0.0047                 0.0086
 IR Inten    --    190.7308                 0.4544                33.9269

                      4                      5                      6
                      A                      A                      A
 Frequencies --     77.8643                82.7714                84.8358
 Red. masses --      4.2475                 1.9799                 2.4607
 Frc consts  --      0.0152                 0.0080                 0.0104
 IR Inten    --      8.4340                 2.2447                 1.8251

                      7                      8                      9
                      A                      A                      A
 Frequencies --     92.6786               101.6077               121.0226
 Red. masses --      2.4468                 3.4775                 4.8219
 Frc consts  --      0.0124                 0.0212                 0.0416
 IR Inten    --      0.3738                67.7515                12.2675

                     10                     11                     12
                      A                      A                      A
 Frequencies --    133.8036               203.0848               252.5152
 Red. masses --      5.1122                 6.8379                 5.6721
 Frc consts  --      0.0539                 0.1662                 0.2131
 IR Inten    --      1.3222                16.7789                 2.6834

                     13                     14                     15
                      A                      A                      A
 Frequencies --    261.9441               264.0982               279.2645
 Red. masses --      5.2588                 4.2372                 4.9222
 Frc consts  --      0.2126                 0.1741                 0.2262
 IR Inten    --      3.2268                 0.7613                 1.3510

                     16                     17                     18
                      A                      A                      A
 Frequencies --    332.9013               348.8668               361.6703
 Red. masses --      6.9345                 4.2874                 6.7263
 Frc consts  --      0.4528                 0.3074                 0.5184
 IR Inten    --     23.7494                 1.2245                 1.0261

                     19                     20                     21
                      A                      A                      A
 Frequencies --    384.9160               387.1039               452.7737
 Red. masses --      1.1411                 4.5832                 1.3278
 Frc consts  --      0.0996                 0.4046                 0.1604
 IR Inten    --      0.0034                 2.4717               385.9818

                     22                     23                     24
                      A                      A                      A
 Frequencies --    454.9403               493.4541               522.2080
 Red. masses --      2.3063                 4.9855                 2.0293
 Frc consts  --      0.2812                 0.7152                 0.3261
 IR Inten    --     74.1061                 3.0297                68.6728

                     25                     26                     27
                      A                      A                      A
 Frequencies --    537.2105               548.4008               557.5843
 Red. masses --      3.9393                 2.4863                 1.7797
 Frc consts  --      0.6698                 0.4406                 0.3260
 IR Inten    --     39.8745                 5.3712               152.5413

                     28                     29                     30
                      A                      A                      A
 Frequencies --    578.2768               603.3462               616.3645
 Red. masses --      1.8321                 3.3444                 8.1099
 Frc consts  --      0.3610                 0.7173                 1.8153
 IR Inten    --      2.9949                15.4236                 1.6986

                     31                     32                     33
                      A                      A                      A
 Frequencies --    633.2888               667.0292               694.7131
 Red. masses --      1.7668                 6.2628                 2.9245
 Frc consts  --      0.4175                 1.6418                 0.8316
 IR Inten    --     22.1237                 5.0285                18.3987

                     34                     35                     36
                      A                      A                      A
 Frequencies --    697.5649               705.6987               712.0143
 Red. masses --      3.7604                 1.6381                 6.0268
 Frc consts  --      1.0781                 0.4806                 1.8002
 IR Inten    --      0.1150                 4.0679                 6.3600

                     37                     38                     39
                      A                      A                      A
 Frequencies --    728.1048               748.2148               825.9031
 Red. masses --      1.3797                 1.9127                 5.7014
 Frc consts  --      0.4309                 0.6309                 2.2914
 IR Inten    --     13.9638                60.5635                36.5344

                     40                     41                     42
                      A                      A                      A
 Frequencies --    827.7871               863.2972               876.3377
 Red. masses --      1.4334                 5.7822                 1.8601
 Frc consts  --      0.5787                 2.5390                 0.8417
 IR Inten    --     15.4433                 9.2773                30.2461

                     43                     44                     45
                      A                      A                      A
 Frequencies --    884.1209               938.1846               950.8876
 Red. masses --      4.0150                 1.3463                 5.3050
 Frc consts  --      1.8491                 0.6982                 2.8261
 IR Inten    --     21.7674                 0.9055                 2.1719

                     46                     47                     48
                      A                      A                      A
 Frequencies --   1001.7841              1003.4728              1009.2050
 Red. masses --      1.2757                 3.9169                 4.2709
 Frc consts  --      0.7543                 2.3239                 2.5629
 IR Inten    --      2.4452                 5.2875                16.1289

                     49                     50                     51
                      A                      A                      A
 Frequencies --   1016.7546              1038.5201              1066.9944
 Red. masses --      4.8332                 1.8508                 1.6846
 Frc consts  --      2.9439                 1.1761                 1.1300
 IR Inten    --      1.4822                29.3147                16.9374

                     52                     53                     54
                      A                      A                      A
 Frequencies --   1079.9275              1101.2902              1129.1116
 Red. masses --      1.4106                 1.8668                 1.6221
 Frc consts  --      0.9693                 1.3340                 1.2185
 IR Inten    --      2.3190                25.9304                14.6258

                     55                     56                     57
                      A                      A                      A
 Frequencies --   1155.8475              1214.6833              1225.0591
 Red. masses --      1.5746                 1.1616                 2.0305
 Frc consts  --      1.2394                 1.0098                 1.7954
 IR Inten    --     18.2373                 0.6768                82.4550

                     58                     59                     60
                      A                      A                      A
 Frequencies --   1238.1777              1267.2482              1292.2039
 Red. masses --      2.0093                 3.0469                 2.3733
 Frc consts  --      1.8149                 2.8829                 2.3349
 IR Inten    --    133.9364               117.3812                79.1870

                     61                     62                     63
                      A                      A                      A
 Frequencies --   1336.4351              1354.1862              1373.6073
 Red. masses --      2.7101                 2.6694                 3.3464
 Frc consts  --      2.8519                 2.8841                 3.7201
 IR Inten    --     19.4017               259.1274                80.1553

                     64                     65                     66
                      A                      A                      A
 Frequencies --   1425.1592              1462.5971              1486.7735
 Red. masses --      1.2616                 2.7299                 1.7801
 Frc consts  --      1.5097                 3.4407                 2.3184
 IR Inten    --     40.1266                33.8007                15.7571

                     67                     68                     69
                      A                      A                      A
 Frequencies --   1495.9527              1511.5204              1521.3561
 Red. masses --      1.0773                 1.0790                 2.7362
 Frc consts  --      1.4204                 1.4525                 3.7312
 IR Inten    --     14.1511                11.4701               405.6743

                     70                     71                     72
                      A                      A                      A
 Frequencies --   1546.8080              1566.9420              1594.0769
 Red. masses --      2.1757                 3.7172                 2.4751
 Frc consts  --      3.0671                 5.3774                 3.7056
 IR Inten    --    350.1665               247.2668               346.6045

                     73                     74                     75
                      A                      A                      A
 Frequencies --   1600.4364              1613.8823              1646.8468
 Red. masses --      3.3173                 1.4078                 3.9624
 Frc consts  --      5.0062                 2.1604                 6.3316
 IR Inten    --    114.9120               221.5047                97.7322

                     76                     77                     78
                      A                      A                      A
 Frequencies --   1653.5165              1665.3494              1718.1042
 Red. masses --      1.7623                 5.5482                 4.2061
 Frc consts  --      2.8388                 9.0659                 7.3153
 IR Inten    --    868.0280               158.1079               874.5677

                     79                     80                     81
                      A                      A                      A
 Frequencies --   1772.1623              3081.6225              3149.8397
 Red. masses --      7.7490                 1.0376                 1.1002
 Frc consts  --     14.3386                 5.8055                 6.4315
 IR Inten    --    323.9916                 6.1760                13.3324

                     82                     83                     84
                      A                      A                      A
 Frequencies --   3177.1325              3206.4667              3213.0054
 Red. masses --      1.1036                 1.0894                 1.0895
 Frc consts  --      6.5637                 6.5993                 6.6267
 IR Inten    --     13.9759                19.6213                20.7758

                     85                     86                     87
                      A                      A                      A
 Frequencies --   3254.0061              3288.6442              3306.4898
 Red. masses --      1.0909                 1.0919                 1.0943
 Frc consts  --      6.8054                 6.9576                 7.0489
 IR Inten    --      6.3796                11.4885                 7.0958

                     88                     89                     90
                      A                      A                      A
 Frequencies --   3487.9773              3567.2146              3581.5087
 Red. masses --      1.0525                 1.0495                 1.0770
 Frc consts  --      7.5441                 7.8685                 8.1391
 IR Inten    --    429.8155               227.5958               303.2590

                     91                     92                     93
                      A                      A                      A
 Frequencies --   3595.6503              3638.8690              3678.0236
 Red. masses --      1.0773                 1.1017                 1.1082
 Frc consts  --      8.2065                 8.5947                 8.8327
 IR Inten    --     50.1481               436.6210               224.7764

 - Thermochemistry -
 -------------------
 Temperature   298.150 Kelvin.  Pressure   1.00000 Atm.
 Atom     1 has atomic number  6 and mass  12.00000

 Molecular mass:   276.09191 amu.
 Principal axes and moments of inertia in atomic units:
                           1         2         3
     Eigenvalues --  1986.09738********************
           X            0.99988   0.01519   0.00013
           Y           -0.01519   0.99988   0.00201
           Z           -0.00010  -0.00201   1.00000
 This molecule is an asymmetric top.
 Rotational symmetry number  1.
 Warning -- assumption of classical behavior for rotation
           may cause significant error
 Rotational temperatures (Kelvin)      0.04361     0.00624     0.00547
 Rotational constants (GHZ):           0.90869     0.12999     0.11396
    1 imaginary frequencies ignored.
 Zero-point vibrational energy     684180.4 (Joules/Mol)
                                  163.52303 (Kcal/Mol)
 Warning -- explicit consideration of  29 degrees of freedom as
           vibrations may cause significant error
 Vibrational temperatures:     53.74    68.45   112.03   119.09   122.06
          (Kelvin)            133.34   146.19   174.12   192.51   292.19
                              363.31   376.88   379.98   401.80   478.97
                              501.94   520.36   553.81   556.96   651.44
                              654.56   709.97   751.34   772.93   789.03
                              802.24   832.01   868.08   886.81   911.16
                              959.71   999.54  1003.64  1015.34  1024.43
                             1047.58  1076.51  1188.29  1191.00  1242.09
                             1260.85  1272.05  1349.84  1368.12  1441.34
                             1443.77  1452.02  1462.88  1494.20  1535.17
                             1553.77  1584.51  1624.54  1663.01  1747.66
                             1762.59  1781.46  1823.29  1859.19  1922.83
                             1948.37  1976.31  2050.49  2104.35  2139.14
                             2152.34  2174.74  2188.89  2225.51  2254.48
                             2293.52  2302.67  2322.02  2369.45  2379.04
                             2396.07  2471.97  2549.75  4433.77  4531.92
                             4571.19  4613.39  4622.80  4681.79  4731.63
                             4757.30  5018.42  5132.43  5152.99  5173.34
                             5235.52  5291.86

 Zero-point correction=                           0.260591 (Hartree/Particle)
 Thermal correction to Energy=                    0.278234
 Thermal correction to Enthalpy=                  0.279179
 Thermal correction to Gibbs Free Energy=         0.214194
 Sum of electronic and zero-point Energies=          -1212.558761
 Sum of electronic and thermal Energies=             -1212.541117
 Sum of electronic and thermal Enthalpies=           -1212.540173
 Sum of electronic and thermal Free Energies=        -1212.605157

                     E (Thermal)             CV                S
                      KCal/Mol        Cal/Mol-Kelvin    Cal/Mol-Kelvin
 Total                  174.595             67.559            136.771
 Electronic               0.000              0.000              0.000
 Translational            0.889              2.981             42.745
 Rotational               0.889              2.981             34.434
 Vibrational            172.817             61.597             59.592
 Vibration     1          0.594              1.982              5.395
 Vibration     2          0.595              1.978              4.916
 Vibration     3          0.599              1.964              3.944
 Vibration     4          0.600              1.961              3.824
 Vibration     5          0.601              1.960              3.776
 Vibration     6          0.602              1.954              3.603
 Vibration     7          0.604              1.948              3.423
 Vibration     8          0.609              1.932              3.084
 Vibration     9          0.613              1.920              2.891
 Vibration    10          0.639              1.836              2.105
 Vibration    11          0.664              1.759              1.713
 Vibration    12          0.669              1.742              1.649
 Vibration    13          0.671              1.739              1.635
 Vibration    14          0.680              1.712              1.538
 Vibration    15          0.715              1.610              1.246
 Vibration    16          0.726              1.578              1.171
 Vibration    17          0.736              1.551              1.115
 Vibration    18          0.754              1.502              1.020
 Vibration    19          0.756              1.498              1.011
 Vibration    20          0.811              1.355              0.787
 Vibration    21          0.813              1.350              0.781
 Vibration    22          0.849              1.265              0.675
 Vibration    23          0.877              1.201              0.605
 Vibration    24          0.892              1.168              0.571
 Vibration    25          0.904              1.143              0.547
 Vibration    26          0.913              1.123              0.529
 Vibration    27          0.935              1.078              0.489
 Vibration    28          0.962              1.025              0.444
 Vibration    29          0.976              0.997              0.422

                           ! Non-Optimized Parameters !
 Normal termination of Gaussian 16 at Sun Jul 18 19:16:28 2021.

 ----------------------------------------------------------------------
 #p b3lyp/6-31G(d) scrf=(iefpcm,read,solvent=n-octanol) geom=allcheck g
 uess=read
 ----------------------------------------------------------------------

 Structure from the checkpoint file:  "SET_328_BBB321_conf1.geo_195_210_120.chk"
 ---------------------------------------------
 SET_328_BBB321_conf1.geo_195_210_120 geometry
 ---------------------------------------------
 Charge =  1 Multiplicity = 1

 SCF Done:  E(RB3LYP) =  -1212.81935129     A.U. after    1 cycles
 Normal termination of Gaussian 16 at Sun Jul 18 19:17:16 2021.

 -----------------------------
 #p B3LYP/6-31G* geom=allcheck
 -----------------------------

 Structure from the checkpoint file:  "SET_328_BBB321_conf1.geo_195_210_120.chk"
 ---------------------------------------------
 SET_328_BBB321_conf1.geo_195_210_120 geometry
 ---------------------------------------------
 Charge =  1 Multiplicity = 1

 SCF Done:  E(RB3LYP) =  -1212.69413287     A.U. after   16 cycles
 Normal termination of Gaussian 16 at Sun Jul 18 19:19:35 2021.
 Gaussian 16:  ES64L-G16RevA.03 25-Dec-2016

 --------------------------------------------------------
 #p mp2/aug-cc-pVDZ scf=tight maxdisk=180GB geom=allcheck
 --------------------------------------------------------

 Structure from the checkpoint file:  "SET_328_BBB321_conf1.geo_195_210_120.chk"
 ---------------------------------------------
 SET_328_BBB321_conf1.geo_195_210_120 geometry
 ---------------------------------------------
 Charge =  1 Multiplicity = 1

                         Standard orientation:
 ---------------------------------------------------------------------
 Center     Atomic      Atomic             Coordinates (Angstroms)
 Number     Number       Type             X           Y           Z
 ---------------------------------------------------------------------
      1          6           0       -6.468872   -1.157132   -0.153504
      2          1           0       -6.836235   -1.361257    0.857111
      3          1           0       -6.097421   -2.091603   -0.579380
      4          1           0       -7.310901   -0.798644   -0.747388
      5          6           0       -5.419241   -0.062741   -0.088350
      6          8           0       -5.723158    1.121711    0.000994
      7          7           0       -4.121839   -0.519942   -0.109751
      8          1           0       -4.001621   -1.523704   -0.186841
      9          6           0       -2.927539    0.219009   -0.008959
     10          6           0       -2.901079    1.619658    0.107056
     11          6           0       -1.671539    2.267990    0.199940
     12          6           0       -0.472445    1.560908    0.180744
     13          1           0        0.476387    2.074789    0.261591
     14          1           0       -1.653000    3.349018    0.290738
     15          1           0       -3.834185    2.161715    0.121456
     16          6           0       -1.722706   -0.494864   -0.031831
     17          1           0       -1.745590   -1.575257   -0.132223
     18          6           0       -0.490927    0.163708    0.064828
     19          6           0        0.769376   -0.598214    0.054499
     20          7           0        1.977486    0.086082    0.011012
     21          6           0        0.895042   -1.959177    0.097243
     22          1           0        0.119341   -2.706348    0.151249
     23         16           0        2.565050   -2.435603    0.079351
     24          6           0        2.987934   -0.731274    0.020717
     25          7           0        4.320266   -0.346480   -0.015834
     26          6           0        4.796150    0.933038   -0.100174
     27          7           0        6.114989    1.098041   -0.109876
     28          1           0        6.743790    0.304350   -0.067941
     29          1           0        6.513709    2.027151   -0.180266
     30          7           0        3.966490    1.960515   -0.170578
     31          1           0        2.962593    1.790390   -0.151482
     32          1           0        4.330983    2.904311   -0.238582
     33          1           0        5.029950   -1.071930    0.036309
 ---------------------------------------------------------------------

 SCF Done:  E(RHF) =  -1207.15555933     A.U. after   18 cycles
 E2 =    -0.2816126688D+01 EUMP2 =    -0.12099716860233D+04

 The electronic state is 1-A.
 Alpha  occ. eigenvalues --  -92.13571 -20.60592 -15.81622 -15.80114 -15.78673
 Alpha  occ. eigenvalues --  -15.72091 -15.69037 -11.60745 -11.51542 -11.44072
 Alpha  occ. eigenvalues --  -11.41371 -11.39181 -11.38355 -11.35580 -11.33755
 Alpha  occ. eigenvalues --  -11.33172 -11.33051 -11.31911 -11.31305  -9.13729
 Alpha  occ. eigenvalues --   -6.81892  -6.81785  -6.81591  -1.55219  -1.45974
 Alpha  occ. eigenvalues --   -1.45531  -1.39605  -1.38885  -1.33833  -1.24578
 Alpha  occ. eigenvalues --   -1.20507  -1.16912  -1.11720  -1.10831  -1.06372
 Alpha  occ. eigenvalues --   -1.05326  -0.99629  -0.98836  -0.95309  -0.93771
 Alpha  occ. eigenvalues --   -0.91159  -0.89131  -0.86635  -0.85748  -0.84356
 Alpha  occ. eigenvalues --   -0.82933  -0.81970  -0.81092  -0.76779  -0.75304
 Alpha  occ. eigenvalues --   -0.72348  -0.72280  -0.70908  -0.70039  -0.69376
 Alpha  occ. eigenvalues --   -0.68297  -0.66017  -0.64289  -0.64070  -0.63273
 Alpha  occ. eigenvalues --   -0.62366  -0.61500  -0.61399  -0.59020  -0.58154
 Alpha  occ. eigenvalues --   -0.57995  -0.53292  -0.51965  -0.49543  -0.47612
 Alpha  occ. eigenvalues --   -0.40965  -0.38996
 Alpha virt. eigenvalues --   -0.09150  -0.07083  -0.05422  -0.04887  -0.04437
 Alpha virt. eigenvalues --   -0.03659  -0.03379  -0.02830  -0.02347  -0.01845
 Alpha virt. eigenvalues --   -0.01414  -0.00335  -0.00062   0.00264   0.00599

 Mulliken charges:
               1
     1  C    0.443829
     2  H    0.075197
     3  H   -0.133103
     4  H    0.010055
     5  C    0.545684
     6  O   -0.849325
     7  N   -0.591054
     8  H   -0.032554
     9  C   -0.393062
    10  C    1.148990
    11  C   -0.106516
    12  C    0.775352
    13  H   -0.605402
    14  H   -0.541983
    15  H   -0.641530
    16  C    1.118005
    17  H   -0.764630
    18  C    1.648435
    19  C   -0.711184
    20  N   -0.693361
    21  C    0.499986
    22  H   -0.596480
    23  S    0.497345
    24  C    0.551202
    25  N   -0.726770
    26  C    1.338315
    27  N   -0.261471
    28  H   -0.001554
    29  H    0.027203
    30  N   -0.140661
    31  H    0.116613
    32  H    0.007771
    33  H   -0.013342
 Sum of Mulliken charges =   1.00000

 Dipole moment (field-independent basis, Debye):
    X=             19.9690    Y=             -0.8912    Z=             -0.5687  Tot=             19.9969
 Quadrupole moment (field-independent basis, Debye-Ang):
   XX=             16.0132   YY=            -87.8608   ZZ=           -124.3219
   XY=             40.7525   XZ=             -1.0309   YZ=             -0.7845

 Normal termination of Gaussian 16 at Sun Jul 18 20:18:21 2021.
