 Gaussian 16, Revision A.03,

 ---------------------------------------------------------------
 #p b3lyp/6-31G(d) opt freq scrf=(iefpcm,read,solvent=n-octanol)
 ---------------------------------------------------------------

 ---------------------------------------------
 SET_328_BBB321_conf1.geo_180_330_120 geometry
 ---------------------------------------------
 Symbolic Z-matrix:
 Charge =  1 Multiplicity = 1

 SCF Done:  E(RB3LYP) =  -1212.47036838     A.U. after   16 cycles
 SCF Done:  E(RB3LYP) =  -1212.62323649     A.U. after   12 cycles
 SCF Done:  E(RB3LYP) =  -1212.70423795     A.U. after   13 cycles
 SCF Done:  E(RB3LYP) =  -1212.75531024     A.U. after   12 cycles
 SCF Done:  E(RB3LYP) =  -1212.78856678     A.U. after   12 cycles
 SCF Done:  E(RB3LYP) =  -1212.80319092     A.U. after   12 cycles
 SCF Done:  E(RB3LYP) =  -1212.80963448     A.U. after   14 cycles
 SCF Done:  E(RB3LYP) =  -1212.81475704     A.U. after   12 cycles
 SCF Done:  E(RB3LYP) =  -1212.81636838     A.U. after   11 cycles
 SCF Done:  E(RB3LYP) =  -1212.81784361     A.U. after   12 cycles
 SCF Done:  E(RB3LYP) =  -1212.81922157     A.U. after    8 cycles
 SCF Done:  E(RB3LYP) =  -1212.81918299     A.U. after   10 cycles
 SCF Done:  E(RB3LYP) =  -1212.81919736     A.U. after   10 cycles
 SCF Done:  E(RB3LYP) =  -1212.81921576     A.U. after   10 cycles
 SCF Done:  E(RB3LYP) =  -1212.81921244     A.U. after    9 cycles
 SCF Done:  E(RB3LYP) =  -1212.81921771     A.U. after    9 cycles
 Optimization completed.
    -- Stationary point found.
 Normal termination of Gaussian 16 at Sun Jul 18 20:50:42 2021.

 --------------------------------------------------------------------
 #P Geom=AllCheck Guess=TCheck SCRF=Check GenChk RB3LYP/6-31G(d) Freq
 --------------------------------------------------------------------

 Structure from the checkpoint file:  "SET_328_BBB321_conf1.geo_180_330_120.chk"
 ---------------------------------------------
 SET_328_BBB321_conf1.geo_180_330_120 geometry
 ---------------------------------------------
 Charge =  1 Multiplicity = 1

 SCF Done:  E(RB3LYP) =  -1212.81921771     A.U. after    1 cycles

  Exact polarizability: 333.717  10.001 277.844   9.998  -2.737  83.978
 Approx polarizability: 391.918  16.645 346.072  15.577  -4.184 112.561

                      1                      2                      3
                      A                      A                      A
 Frequencies --     29.0765                41.4576                48.6073
 Red. masses --      3.9184                 8.0153                 1.0926
 Frc consts  --      0.0020                 0.0081                 0.0015
 IR Inten    --      0.2881                 7.3124                 1.4648

                      4                      5                      6
                      A                      A                      A
 Frequencies --     67.8347                78.0249                91.8840
 Red. masses --      5.0285                 4.6424                 4.5992
 Frc consts  --      0.0136                 0.0167                 0.0229
 IR Inten    --      3.5466                 8.3752                 2.6383

                      7                      8                      9
                      A                      A                      A
 Frequencies --     94.1515               115.7343               138.7545
 Red. masses --      5.0907                 6.1805                 5.0458
 Frc consts  --      0.0266                 0.0488                 0.0572
 IR Inten    --      2.5023                 3.0188                12.0732

                     10                     11                     12
                      A                      A                      A
 Frequencies --    206.9536               247.4837               260.0497
 Red. masses --      6.1702                 4.5395                 4.2557
 Frc consts  --      0.1557                 0.1638                 0.1696
 IR Inten    --     10.4605                 5.3732                 2.6987

                     13                     14                     15
                      A                      A                      A
 Frequencies --    262.9322               270.8583               281.7389
 Red. masses --      2.2356                 2.1532                 3.2374
 Frc consts  --      0.0911                 0.0931                 0.1514
 IR Inten    --     80.7370               154.0010                85.8516

                     16                     17                     18
                      A                      A                      A
 Frequencies --    329.3408               339.3619               345.4744
 Red. masses --      2.9495                 6.7786                 1.6996
 Frc consts  --      0.1885                 0.4600                 0.1195
 IR Inten    --     83.6569                17.8792               145.5313

                     19                     20                     21
                      A                      A                      A
 Frequencies --    350.2214               412.5858               415.7640
 Red. masses --      3.6581                 3.5313                 1.2205
 Frc consts  --      0.2644                 0.3542                 0.1243
 IR Inten    --      5.7918                34.8837               126.6853

                     22                     23                     24
                      A                      A                      A
 Frequencies --    455.0577               494.2417               535.4722
 Red. masses --      3.3574                 4.9307                 2.6619
 Frc consts  --      0.4096                 0.7096                 0.4497
 IR Inten    --      0.8227                 5.0295                11.0237

                     25                     26                     27
                      A                      A                      A
 Frequencies --    539.0276               547.2910               550.4161
 Red. masses --      2.8514                 2.0483                 2.5025
 Frc consts  --      0.4881                 0.3615                 0.4467
 IR Inten    --     45.3989               152.0075                 3.6585

                     28                     29                     30
                      A                      A                      A
 Frequencies --    589.7982               613.6231               626.4434
 Red. masses --      2.9543                 1.4198                 8.8165
 Frc consts  --      0.6055                 0.3150                 2.0385
 IR Inten    --     21.0780               118.9407                 1.8418

                     31                     32                     33
                      A                      A                      A
 Frequencies --    630.7780               662.4543               665.6384
 Red. masses --      2.1891                 2.2171                 1.8218
 Frc consts  --      0.5132                 0.5732                 0.4756
 IR Inten    --      6.1853                 7.7474                 4.2481

                     34                     35                     36
                      A                      A                      A
 Frequencies --    697.5236               706.8981               707.8850
 Red. masses --      4.2832                 2.3577                 3.6943
 Frc consts  --      1.2278                 0.6942                 1.0907
 IR Inten    --      1.4769                 1.8263                 7.2712

                     37                     38                     39
                      A                      A                      A
 Frequencies --    711.1016               751.7580               814.9603
 Red. masses --      3.3085                 1.7565                 1.6015
 Frc consts  --      0.9857                 0.5849                 0.6267
 IR Inten    --      4.2335                71.8880                27.5612

                     40                     41                     42
                      A                      A                      A
 Frequencies --    826.3725               871.4021               884.0266
 Red. masses --      5.4229                 6.1732                 4.2277
 Frc consts  --      2.1819                 2.7618                 1.9467
 IR Inten    --     31.4486                25.3348                 1.4810

                     43                     44                     45
                      A                      A                      A
 Frequencies --    904.2635               922.9528               952.6266
 Red. masses --      1.5721                 1.3677                 5.1754
 Frc consts  --      0.7574                 0.6864                 2.7672
 IR Inten    --     23.9637                 0.8411                 0.9369

                     46                     47                     48
                      A                      A                      A
 Frequencies --    996.5753              1006.3871              1010.7250
 Red. masses --      1.2728                 4.3021                 3.5750
 Frc consts  --      0.7448                 2.5672                 2.1518
 IR Inten    --      2.0213                 0.2082                32.5000

                     49                     50                     51
                      A                      A                      A
 Frequencies --   1017.9838              1039.8910              1065.0025
 Red. masses --      5.1963                 1.9983                 1.6821
 Frc consts  --      3.1727                 1.2732                 1.1241
 IR Inten    --      1.4146                13.1247                14.1149

                     52                     53                     54
                      A                      A                      A
 Frequencies --   1092.8063              1115.8049              1123.0471
 Red. masses --      1.3868                 1.8363                 1.6540
 Frc consts  --      0.9758                 1.3470                 1.2291
 IR Inten    --      2.4464                16.2841                20.6588

                     55                     56                     57
                      A                      A                      A
 Frequencies --   1150.7765              1204.5159              1227.9139
 Red. masses --      1.6805                 1.1614                 1.6715
 Frc consts  --      1.3112                 0.9928                 1.4849
 IR Inten    --     17.8602                 2.6326                29.9243

                     58                     59                     60
                      A                      A                      A
 Frequencies --   1249.0450              1268.7827              1289.3383
 Red. masses --      2.8042                 2.6945                 2.3051
 Frc consts  --      2.5776                 2.5556                 2.2577
 IR Inten    --    208.4508               126.9761                48.8021

                     61                     62                     63
                      A                      A                      A
 Frequencies --   1352.1439              1364.1744              1381.5300
 Red. masses --      2.5631                 2.9979                 3.1413
 Frc consts  --      2.7610                 3.2870                 3.5325
 IR Inten    --    181.6642                37.0663                28.6608

                     64                     65                     66
                      A                      A                      A
 Frequencies --   1422.1551              1445.0551              1493.0884
 Red. masses --      1.2525                 2.8087                 1.0490
 Frc consts  --      1.4925                 3.4557                 1.3779
 IR Inten    --     27.7686               172.2398                10.0334

                     67                     68                     69
                      A                      A                      A
 Frequencies --   1500.6899              1508.2092              1541.0543
 Red. masses --      1.7374                 1.0880                 2.5345
 Frc consts  --      2.3054                 1.4582                 3.5463
 IR Inten    --     19.5693                 8.8559               305.8697

                     70                     71                     72
                      A                      A                      A
 Frequencies --   1549.9315              1560.6780              1590.8332
 Red. masses --      2.5459                 3.8974                 2.6495
 Frc consts  --      3.6035                 5.5931                 3.9505
 IR Inten    --    552.6154               112.7060               298.0453

                     73                     74                     75
                      A                      A                      A
 Frequencies --   1603.8561              1625.4518              1650.9150
 Red. masses --      2.9460                 1.4036                 3.9856
 Frc consts  --      4.4649                 2.1850                 6.4001
 IR Inten    --     15.4442               358.1802                94.0834

                     76                     77                     78
                      A                      A                      A
 Frequencies --   1661.3025              1669.5767              1719.8315
 Red. masses --      1.6729                 5.4808                 3.7918
 Frc consts  --      2.7202                 9.0013                 6.6079
 IR Inten    --    807.8956               130.8785               881.4264

                     79                     80                     81
                      A                      A                      A
 Frequencies --   1769.3887              3083.9452              3154.8051
 Red. masses --      8.0028                 1.0360                 1.1014
 Frc consts  --     14.7617                 5.8053                 6.4586
 IR Inten    --    324.4494                 8.0111                10.6065

                     82                     83                     84
                      A                      A                      A
 Frequencies --   3169.1057              3210.7703              3227.0146
 Red. masses --      1.1049                 1.0873                 1.0943
 Frc consts  --      6.5380                 6.6040                 6.7139
 IR Inten    --     19.5250                13.6139                28.7642

                     85                     86                     87
                      A                      A                      A
 Frequencies --   3237.8035              3290.9939              3302.0727
 Red. masses --      1.0885                 1.0919                 1.0945
 Frc consts  --      6.7231                 6.9677                 7.0316
 IR Inten    --      6.4734                 9.0146                 8.0493

                     88                     89                     90
                      A                      A                      A
 Frequencies --   3481.6823              3567.2811              3598.0220
 Red. masses --      1.0541                 1.0475                 1.0769
 Frc consts  --      7.5287                 7.8537                 8.2138
 IR Inten    --    413.5225               279.7173               253.2227

                     91                     92                     93
                      A                      A                      A
 Frequencies --   3622.8368              3643.2120              3679.2278
 Red. masses --      1.0776                 1.1002                 1.1082
 Frc consts  --      8.3333                 8.6039                 8.8387
 IR Inten    --     48.6315               409.3110               214.2730

 - Thermochemistry -
 -------------------
 Temperature   298.150 Kelvin.  Pressure   1.00000 Atm.
 Atom     1 has atomic number  6 and mass  12.00000

 Molecular mass:   276.09191 amu.
 Principal axes and moments of inertia in atomic units:
                           1         2         3
     Eigenvalues --  3379.53614********************
           X            0.99999  -0.00299  -0.00149
           Y            0.00298   0.99999  -0.00264
           Z            0.00150   0.00264   1.00000
 This molecule is an asymmetric top.
 Rotational symmetry number  1.
 Warning -- assumption of classical behavior for rotation
           may cause significant error
 Rotational temperatures (Kelvin)      0.02563     0.00801     0.00613
 Rotational constants (GHZ):           0.53402     0.16699     0.12782
 Zero-point vibrational energy     685624.9 (Joules/Mol)
                                  163.86829 (Kcal/Mol)
 Warning -- explicit consideration of  29 degrees of freedom as
           vibrations may cause significant error
 Vibrational temperatures:     41.83    59.65    69.94    97.60   112.26
          (Kelvin)            132.20   135.46   166.52   199.64   297.76
                              356.07   374.15   378.30   389.70   405.36
                              473.85   488.27   497.06   503.89   593.62
                              598.19   654.73   711.10   770.43   775.54
                              787.43   791.93   848.59   882.87   901.31
                              907.55   953.12   957.71  1003.58  1017.07
                             1018.49  1023.12  1081.61  1172.55  1188.97
                             1253.75  1271.92  1301.03  1327.92  1370.62
                             1433.85  1447.97  1454.21  1464.65  1496.17
                             1532.30  1572.30  1605.39  1615.81  1655.71
                             1733.03  1766.69  1797.10  1825.50  1855.07
                             1945.43  1962.74  1987.71  2046.16  2079.11
                             2148.22  2159.16  2169.98  2217.23  2230.01
                             2245.47  2288.85  2307.59  2338.66  2375.30
                             2390.24  2402.15  2474.45  2545.76  4437.11
                             4539.06  4559.64  4619.58  4642.95  4658.48
                             4735.01  4750.95  5009.36  5132.52  5176.75
                             5212.45  5241.77  5293.59

 Zero-point correction=                           0.261141 (Hartree/Particle)
 Thermal correction to Energy=                    0.279467
 Thermal correction to Enthalpy=                  0.280411
 Thermal correction to Gibbs Free Energy=         0.213297
 Sum of electronic and zero-point Energies=          -1212.558077
 Sum of electronic and thermal Energies=             -1212.539751
 Sum of electronic and thermal Enthalpies=           -1212.538807
 Sum of electronic and thermal Free Energies=        -1212.605920

                     E (Thermal)             CV                S
                      KCal/Mol        Cal/Mol-Kelvin    Cal/Mol-Kelvin
 Total                  175.368             69.455            141.252
 Electronic               0.000              0.000              0.000
 Translational            0.889              2.981             42.745
 Rotational               0.889              2.981             34.599
 Vibrational            173.590             63.494             63.908
 Vibration     1          0.593              1.984              5.891
 Vibration     2          0.594              1.981              5.188
 Vibration     3          0.595              1.978              4.873
 Vibration     4          0.598              1.970              4.215
 Vibration     5          0.599              1.964              3.940
 Vibration     6          0.602              1.955              3.620
 Vibration     7          0.603              1.953              3.572
 Vibration     8          0.608              1.936              3.170
 Vibration     9          0.614              1.915              2.821
 Vibration    10          0.641              1.830              2.070
 Vibration    11          0.661              1.767              1.748
 Vibration    12          0.668              1.746              1.661
 Vibration    13          0.670              1.741              1.642
 Vibration    14          0.675              1.727              1.591
 Vibration    15          0.681              1.707              1.523
 Vibration    16          0.712              1.617              1.263
 Vibration    17          0.719              1.597              1.215
 Vibration    18          0.724              1.584              1.187
 Vibration    19          0.727              1.575              1.165
 Vibration    20          0.776              1.443              0.918
 Vibration    21          0.779              1.436              0.906
 Vibration    22          0.813              1.350              0.781
 Vibration    23          0.850              1.263              0.673
 Vibration    24          0.890              1.172              0.575
 Vibration    25          0.894              1.164              0.567
 Vibration    26          0.903              1.146              0.550
 Vibration    27          0.906              1.139              0.543
 Vibration    28          0.947              1.054              0.468
 Vibration    29          0.973              1.003              0.427

                           ! Non-Optimized Parameters !
 Normal termination of Gaussian 16 at Sun Jul 18 21:47:41 2021.

 ----------------------------------------------------------------------
 #p b3lyp/6-31G(d) scrf=(iefpcm,read,solvent=n-octanol) geom=allcheck g
 uess=read
 ----------------------------------------------------------------------

 Structure from the checkpoint file:  "SET_328_BBB321_conf1.geo_180_330_120.chk"
 ---------------------------------------------
 SET_328_BBB321_conf1.geo_180_330_120 geometry
 ---------------------------------------------
 Charge =  1 Multiplicity = 1

 SCF Done:  E(RB3LYP) =  -1212.81921771     A.U. after    2 cycles
 Normal termination of Gaussian 16 at Sun Jul 18 21:49:16 2021.

 -----------------------------
 #p B3LYP/6-31G* geom=allcheck
 -----------------------------

 Structure from the checkpoint file:  "SET_328_BBB321_conf1.geo_180_330_120.chk"
 ---------------------------------------------
 SET_328_BBB321_conf1.geo_180_330_120 geometry
 ---------------------------------------------
 Charge =  1 Multiplicity = 1

 SCF Done:  E(RB3LYP) =  -1212.69198990     A.U. after   17 cycles
 Normal termination of Gaussian 16 at Sun Jul 18 21:53:31 2021.
 Gaussian 16:  ES64L-G16RevA.03 25-Dec-2016

 --------------------------------------------------------
 #p mp2/aug-cc-pVDZ scf=tight maxdisk=180GB geom=allcheck
 --------------------------------------------------------

 Structure from the checkpoint file:  "SET_328_BBB321_conf1.geo_180_330_120.chk"
 ---------------------------------------------
 SET_328_BBB321_conf1.geo_180_330_120 geometry
 ---------------------------------------------
 Charge =  1 Multiplicity = 1

                         Standard orientation:
 ---------------------------------------------------------------------
 Center     Atomic      Atomic             Coordinates (Angstroms)
 Number     Number       Type             X           Y           Z
 ---------------------------------------------------------------------
      1          6           0        4.971340    2.759027   -0.267797
      2          1           0        5.503978    2.874985   -1.215739
      3          1           0        5.653754    3.058218    0.530260
      4          1           0        4.107901    3.426029   -0.267960
      5          6           0        4.615265    1.295969   -0.080482
      6          8           0        5.476710    0.439925    0.091154
      7          7           0        3.268475    1.027238   -0.131799
      8          1           0        2.659121    1.820331   -0.278833
      9          6           0        2.612259   -0.211716   -0.010468
     10          6           0        3.286159   -1.428994    0.163127
     11          6           0        2.540691   -2.603117    0.273100
     12          6           0        1.152041   -2.592106    0.216227
     13          1           0        0.597436   -3.517698    0.320634
     14          1           0        3.061534   -3.544477    0.411618
     15          1           0        4.364039   -1.434537    0.211952
     16          6           0        1.213936   -0.198140   -0.071312
     17          1           0        0.691331    0.739935   -0.214349
     18          6           0        0.472552   -1.376640    0.039969
     19          6           0       -0.997325   -1.325978   -0.031739
     20          7           0       -1.640626   -0.095093    0.010656
     21          6           0       -1.838866   -2.397151   -0.151764
     22          1           0       -1.592323   -3.444715   -0.230036
     23         16           0       -3.497809   -1.886380   -0.204603
     24          6           0       -2.931056   -0.230585   -0.070926
     25          7           0       -3.841714    0.815541   -0.048062
     26          6           0       -3.556343    2.141285    0.125579
     27          7           0       -4.570448    2.998726    0.064831
     28          1           0       -4.417099    3.981657    0.262167
     29          1           0       -5.526280    2.672830   -0.023602
     30          7           0       -2.314883    2.546095    0.338756
     31          1           0       -1.562280    1.860684    0.333671
     32          1           0       -2.114389    3.534365    0.443764
     33          1           0       -4.825011    0.596413   -0.180900
 ---------------------------------------------------------------------

 SCF Done:  E(RHF) =  -1207.15336323     A.U. after   18 cycles
 E2 =    -0.2816257000D+01 EUMP2 =    -0.12099696202317D+04

 The electronic state is 1-A.
 Alpha  occ. eigenvalues --  -92.13667 -20.60939 -15.81894 -15.80458 -15.79171
 Alpha  occ. eigenvalues --  -15.72295 -15.69553 -11.61120 -11.51657 -11.44528
 Alpha  occ. eigenvalues --  -11.41390 -11.39247 -11.38372 -11.35626 -11.33880
 Alpha  occ. eigenvalues --  -11.33096 -11.32971 -11.32027 -11.31955  -9.13827
 Alpha  occ. eigenvalues --   -6.81990  -6.81882  -6.81689  -1.55565  -1.46339
 Alpha  occ. eigenvalues --   -1.45770  -1.39994  -1.39151  -1.34353  -1.24727
 Alpha  occ. eigenvalues --   -1.20602  -1.17056  -1.11951  -1.11070  -1.06962
 Alpha  occ. eigenvalues --   -1.05494  -0.99852  -0.99131  -0.95785  -0.93262
 Alpha  occ. eigenvalues --   -0.91937  -0.89366  -0.87039  -0.86154  -0.84641
 Alpha  occ. eigenvalues --   -0.83605  -0.82262  -0.80100  -0.77077  -0.76351
 Alpha  occ. eigenvalues --   -0.72571  -0.72365  -0.70975  -0.69917  -0.69822
 Alpha  occ. eigenvalues --   -0.68859  -0.66422  -0.64498  -0.64130  -0.63765
 Alpha  occ. eigenvalues --   -0.62798  -0.61913  -0.60931  -0.59773  -0.58400
 Alpha  occ. eigenvalues --   -0.58114  -0.53357  -0.52332  -0.49955  -0.47473
 Alpha  occ. eigenvalues --   -0.41430  -0.38925
 Alpha virt. eigenvalues --   -0.09478  -0.07575  -0.06018  -0.05119  -0.04181
 Alpha virt. eigenvalues --   -0.03983  -0.03926  -0.03139  -0.02225  -0.01797
 Alpha virt. eigenvalues --   -0.01508  -0.00908  -0.00318  -0.00028   0.00541

 Mulliken charges:
               1
     1  C    0.491092
     2  H    0.064231
     3  H    0.043182
     4  H   -0.205059
     5  C    0.517973
     6  O   -0.853412
     7  N   -0.557345
     8  H   -0.038178
     9  C   -0.340979
    10  C    1.293614
    11  C   -0.049231
    12  C    0.844216
    13  H   -0.655740
    14  H   -0.513403
    15  H   -0.640023
    16  C    0.842675
    17  H   -0.814580
    18  C    1.687933
    19  C   -0.645841
    20  N   -0.652701
    21  C    0.469294
    22  H   -0.560173
    23  S    0.474874
    24  C    0.420861
    25  N   -0.697669
    26  C    1.356452
    27  N   -0.266384
    28  H    0.030922
    29  H    0.000892
    30  N   -0.168725
    31  H    0.127642
    32  H    0.005412
    33  H   -0.011823
 Sum of Mulliken charges =   1.00000

 Dipole moment (field-independent basis, Debye):
    X=            -17.4142    Y=             10.0939    Z=             -0.0059  Tot=             20.1281
 Quadrupole moment (field-independent basis, Debye-Ang):
   XX=            -49.3713   YY=            -56.9678   ZZ=           -123.7024
   XY=            -24.7171   XZ=             -2.7960   YZ=              1.7478

 Normal termination of Gaussian 16 at Sun Jul 18 23:25:48 2021.
