 Gaussian 16, Revision A.03,

 ---------------------------------------------------------------
 #p b3lyp/6-31G(d) opt freq scrf=(iefpcm,read,solvent=n-octanol)
 ---------------------------------------------------------------

 ---------------------------------------------
 SET_328_BBB292_conf1.geo_075_060_255 geometry
 ---------------------------------------------
 Symbolic Z-matrix:
 Charge =  1 Multiplicity = 1

 SCF Done:  E(RB3LYP) =  -705.667709268     A.U. after   13 cycles
 SCF Done:  E(RB3LYP) =  -705.694512326     A.U. after   12 cycles
 SCF Done:  E(RB3LYP) =  -705.679358628     A.U. after   12 cycles
 SCF Done:  E(RB3LYP) =  -705.704468404     A.U. after   11 cycles
 SCF Done:  E(RB3LYP) =  -705.705903286     A.U. after   11 cycles
 SCF Done:  E(RB3LYP) =  -705.706341230     A.U. after   11 cycles
 SCF Done:  E(RB3LYP) =  -705.707577060     A.U. after   11 cycles
 SCF Done:  E(RB3LYP) =  -705.707739749     A.U. after   11 cycles
 SCF Done:  E(RB3LYP) =  -705.707929219     A.U. after   11 cycles
 SCF Done:  E(RB3LYP) =  -705.708266876     A.U. after   10 cycles
 SCF Done:  E(RB3LYP) =  -705.712462426     A.U. after    8 cycles
 SCF Done:  E(RB3LYP) =  -705.712465262     A.U. after    8 cycles
 SCF Done:  E(RB3LYP) =  -705.712469596     A.U. after    8 cycles
 SCF Done:  E(RB3LYP) =  -705.712468715     A.U. after    7 cycles
 SCF Done:  E(RB3LYP) =  -705.712470268     A.U. after    8 cycles
 SCF Done:  E(RB3LYP) =  -705.712469641     A.U. after    7 cycles
 Optimization completed.
    -- Stationary point found.
 Normal termination of Gaussian 16 at Sun Jul 18 15:07:35 2021.

 --------------------------------------------------------------------
 #P Geom=AllCheck Guess=TCheck SCRF=Check GenChk RB3LYP/6-31G(d) Freq
 --------------------------------------------------------------------

 Structure from the checkpoint file:  "SET_328_BBB292_conf1.geo_075_060_255.chk"
 ---------------------------------------------
 SET_328_BBB292_conf1.geo_075_060_255 geometry
 ---------------------------------------------
 Charge =  1 Multiplicity = 1

 SCF Done:  E(RB3LYP) =  -705.712469641     A.U. after    1 cycles

  Exact polarizability: 169.423   8.339 134.197 -27.351  17.767  90.994
 Approx polarizability: 206.965   6.366 176.600 -41.993  30.168 118.716

                      1                      2                      3
                      A                      A                      A
 Frequencies --     28.8329                54.6872                69.0998
 Red. masses --      5.2454                 8.4882                 7.2431
 Frc consts  --      0.0026                 0.0150                 0.0204
 IR Inten    --      1.4148                 2.5871                 0.1873

                      4                      5                      6
                      A                      A                      A
 Frequencies --    109.3109               144.4694               164.5019
 Red. masses --      4.6256                 4.1379                 1.4296
 Frc consts  --      0.0326                 0.0509                 0.0228
 IR Inten    --     11.0472                38.8245               170.8316

                      7                      8                      9
                      A                      A                      A
 Frequencies --    202.7612               221.7877               265.3951
 Red. masses --      1.3650                 3.1595                 3.1323
 Frc consts  --      0.0331                 0.0916                 0.1300
 IR Inten    --     11.7985                32.0383                26.2880

                     10                     11                     12
                      A                      A                      A
 Frequencies --    279.1198               296.4760               319.1179
 Red. masses --      4.0866                 2.8831                 4.0723
 Frc consts  --      0.1876                 0.1493                 0.2443
 IR Inten    --      9.7879                12.4034                 4.6263

                     13                     14                     15
                      A                      A                      A
 Frequencies --    325.7292               395.2340               444.1139
 Red. masses --      2.6500                 4.7311                 1.2762
 Frc consts  --      0.1657                 0.4354                 0.1483
 IR Inten    --      6.3474                 3.9360                68.5006

                     16                     17                     18
                      A                      A                      A
 Frequencies --    454.5665               465.9805               474.8979
 Red. masses --      3.7087                 2.6083                 3.9851
 Frc consts  --      0.4515                 0.3337                 0.5295
 IR Inten    --     61.3706                16.1149                 9.0883

                     19                     20                     21
                      A                      A                      A
 Frequencies --    552.3062               586.3109               596.2710
 Red. masses --      4.3596                 1.2961                 5.9680
 Frc consts  --      0.7835                 0.2625                 1.2502
 IR Inten    --     13.0118               139.1772                18.6963

                     22                     23                     24
                      A                      A                      A
 Frequencies --    625.6179               640.8812               705.3658
 Red. masses --      3.5022                 4.0767                 5.4240
 Frc consts  --      0.8076                 0.9865                 1.5900
 IR Inten    --     13.8181                31.9504                 1.6840

                     25                     26                     27
                      A                      A                      A
 Frequencies --    762.6524               768.0338               794.7573
 Red. masses --      4.7328                 4.5752                 2.5402
 Frc consts  --      1.6219                 1.5901                 0.9453
 IR Inten    --     35.8822                10.9777                17.5027

                     28                     29                     30
                      A                      A                      A
 Frequencies --    809.9437               836.3510               862.8792
 Red. masses --      4.8512                 1.4179                 1.4369
 Frc consts  --      1.8751                 0.5844                 0.6303
 IR Inten    --     12.2646                25.2456                44.8516

                     31                     32                     33
                      A                      A                      A
 Frequencies --    938.5913               958.3105               963.2891
 Red. masses --      1.3188                 2.1966                 2.0068
 Frc consts  --      0.6845                 1.1885                 1.0971
 IR Inten    --      0.8317                16.7351                22.8610

                     34                     35                     36
                      A                      A                      A
 Frequencies --    984.6379              1053.4977              1111.0525
 Red. masses --      2.2291                 3.4870                 1.4809
 Frc consts  --      1.2733                 2.2802                 1.0771
 IR Inten    --     13.4489                26.6097                22.4413

                     37                     38                     39
                      A                      A                      A
 Frequencies --   1126.8030              1153.1396              1166.5468
 Red. masses --      1.6563                 1.4166                 1.4367
 Frc consts  --      1.2390                 1.1098                 1.1520
 IR Inten    --    185.5096                53.9396                87.7024

                     40                     41                     42
                      A                      A                      A
 Frequencies --   1188.4961              1192.7324              1228.4465
 Red. masses --      2.2438                 1.5377                 1.5249
 Frc consts  --      1.8674                 1.2889                 1.3559
 IR Inten    --    216.1836                12.6105                12.2461

                     43                     44                     45
                      A                      A                      A
 Frequencies --   1237.1939              1297.1082              1326.1030
 Red. masses --      1.3714                 2.7419                 2.2652
 Frc consts  --      1.2368                 2.7180                 2.3470
 IR Inten    --    115.2209               227.4705               237.2127

                     46                     47                     48
                      A                      A                      A
 Frequencies --   1333.2626              1363.8372              1372.3443
 Red. masses --      1.8457                 1.2914                 1.9311
 Frc consts  --      1.9331                 1.4152                 2.1428
 IR Inten    --     25.7295                22.1560                52.1148

                     49                     50                     51
                      A                      A                      A
 Frequencies --   1388.8235              1437.6692              1462.6256
 Red. masses --      1.3433                 2.6338                 2.2976
 Frc consts  --      1.5266                 3.2073                 2.8960
 IR Inten    --     25.1935                45.6734                33.5222

                     52                     53                     54
                      A                      A                      A
 Frequencies --   1494.1773              1527.2705              1564.9994
 Red. masses --      3.3855                 1.0999                 1.1733
 Frc consts  --      4.4532                 1.5116                 1.6930
 IR Inten    --    122.8890                26.6443               331.9494

                     55                     56                     57
                      A                      A                      A
 Frequencies --   1578.8428              1626.9047              1667.8185
 Red. masses --      3.2232                 1.0419                 5.1927
 Frc consts  --      4.7338                 1.6248                 8.5103
 IR Inten    --    144.3856                95.4883                29.6739

                     58                     59                     60
                      A                      A                      A
 Frequencies --   1674.1064              1676.6017              1834.5024
 Red. masses --      5.5681                 1.1049                10.1250
 Frc consts  --      9.1945                 1.8299                20.0761
 IR Inten    --     15.2829                95.9064               387.3625

                     61                     62                     63
                      A                      A                      A
 Frequencies --   3068.1840              3123.2116              3158.7332
 Red. masses --      1.0638                 1.0991                 1.0881
 Frc consts  --      5.9001                 6.3167                 6.3964
 IR Inten    --     31.6330                 7.6267                 5.1854

                     64                     65                     66
                      A                      A                      A
 Frequencies --   3191.7856              3203.1330              3223.0621
 Red. masses --      1.0906                 1.0885                 1.0940
 Frc consts  --      6.5464                 6.5803                 6.6957
 IR Inten    --     18.5544                13.7832                11.1534

                     67                     68                     69
                      A                      A                      A
 Frequencies --   3394.6248              3470.5972              3493.9664
 Red. masses --      1.0406                 1.0867                 1.0930
 Frc consts  --      7.0649                 7.7122                 7.8617
 IR Inten    --    130.6504               207.0738               199.4476

                     70                     71                     72
                      A                      A                      A
 Frequencies --   3671.7150              3698.3897              3768.1403
 Red. masses --      1.0646                 1.0652                 1.0665
 Frc consts  --      8.4561                 8.5840                 8.9223
 IR Inten    --    154.7855               171.3093               154.7301

 - Thermochemistry -
 -------------------
 Temperature   298.150 Kelvin.  Pressure   1.00000 Atm.
 Atom     1 has atomic number  7 and mass  14.00307

 Molecular mass:   198.07663 amu.
 Principal axes and moments of inertia in atomic units:
                           1         2         3
     Eigenvalues --  1290.927784968.201185334.03003
           X            0.99987   0.01480  -0.00709
           Y           -0.01467   0.99974   0.01771
           Z            0.00735  -0.01760   0.99982
 This molecule is an asymmetric top.
 Rotational symmetry number  1.
 Warning -- assumption of classical behavior for rotation
           may cause significant error
 Rotational temperatures (Kelvin)      0.06709     0.01743     0.01624
 Rotational constants (GHZ):           1.39802     0.36326     0.33834
 Zero-point vibrational energy     560167.7 (Joules/Mol)
                                  133.88330 (Kcal/Mol)
 Warning -- explicit consideration of  21 degrees of freedom as
           vibrations may cause significant error
 Vibrational temperatures:     41.48    78.68    99.42   157.27   207.86
          (Kelvin)            236.68   291.73   319.10   381.84   401.59
                              426.56   459.14   468.65   568.65   638.98
                              654.02   670.44   683.27   794.65   843.57
                              857.90   900.12   922.09  1014.86  1097.29
                             1105.03  1143.48  1165.33  1203.32  1241.49
                             1350.42  1378.80  1385.96  1416.67  1515.75
                             1598.56  1621.22  1659.11  1678.40  1709.98
                             1716.08  1767.46  1780.05  1866.25  1907.97
                             1918.27  1962.26  1974.50  1998.21  2068.49
                             2104.39  2149.79  2197.40  2251.69  2271.60
                             2340.75  2399.62  2408.67  2412.26  2639.44
                             4414.43  4493.60  4544.71  4592.27  4608.59
                             4637.27  4884.11  4993.42  5027.04  5282.78
                             5321.16  5421.51

 Zero-point correction=                           0.213357 (Hartree/Particle)
 Thermal correction to Energy=                    0.227046
 Thermal correction to Enthalpy=                  0.227990
 Thermal correction to Gibbs Free Energy=         0.172346
 Sum of electronic and zero-point Energies=           -705.499113
 Sum of electronic and thermal Energies=              -705.485424
 Sum of electronic and thermal Enthalpies=            -705.484479
 Sum of electronic and thermal Free Energies=         -705.540123

                     E (Thermal)             CV                S
                      KCal/Mol        Cal/Mol-Kelvin    Cal/Mol-Kelvin
 Total                  142.474             51.524            117.112
 Electronic               0.000              0.000              0.000
 Translational            0.889              2.981             41.755
 Rotational               0.889              2.981             31.903
 Vibrational            140.696             45.562             43.453
 Vibration     1          0.593              1.984              5.908
 Vibration     2          0.596              1.976              4.640
 Vibration     3          0.598              1.969              4.179
 Vibration     4          0.606              1.942              3.281
 Vibration     5          0.616              1.909              2.744
 Vibration     6          0.623              1.886              2.497
 Vibration     7          0.639              1.836              2.108
 Vibration     8          0.648              1.808              1.944
 Vibration     9          0.671              1.736              1.626
 Vibration    10          0.679              1.712              1.539
 Vibration    11          0.690              1.680              1.437
 Vibration    12          0.705              1.637              1.315
 Vibration    13          0.710              1.624              1.281
 Vibration    14          0.762              1.480              0.980
 Vibration    15          0.804              1.374              0.814
 Vibration    16          0.813              1.351              0.782
 Vibration    17          0.823              1.326              0.749
 Vibration    18          0.832              1.306              0.724
 Vibration    19          0.908              1.135              0.539
 Vibration    20          0.943              1.061              0.474
 Vibration    21          0.954              1.040              0.456

                           ! Non-Optimized Parameters !
 Normal termination of Gaussian 16 at Sun Jul 18 15:32:36 2021.

 ----------------------------------------------------------------------
 #p b3lyp/6-31G(d) scrf=(iefpcm,read,solvent=n-octanol) geom=allcheck g
 uess=read
 ----------------------------------------------------------------------

 Structure from the checkpoint file:  "SET_328_BBB292_conf1.geo_075_060_255.chk"
 ---------------------------------------------
 SET_328_BBB292_conf1.geo_075_060_255 geometry
 ---------------------------------------------
 Charge =  1 Multiplicity = 1

 SCF Done:  E(RB3LYP) =  -705.714655131     A.U. after    1 cycles
 Normal termination of Gaussian 16 at Sun Jul 18 15:33:17 2021.

 -----------------------------
 #p B3LYP/6-31G* geom=allcheck
 -----------------------------

 Structure from the checkpoint file:  "SET_328_BBB292_conf1.geo_075_060_255.chk"
 ---------------------------------------------
 SET_328_BBB292_conf1.geo_075_060_255 geometry
 ---------------------------------------------
 Charge =  1 Multiplicity = 1

 SCF Done:  E(RB3LYP) =  -705.584606042     A.U. after   15 cycles
 Normal termination of Gaussian 16 at Sun Jul 18 15:35:38 2021.
 Gaussian 16:  ES64L-G16RevA.03 25-Dec-2016

 --------------------------------------------------------
 #p mp2/aug-cc-pVDZ scf=tight maxdisk=180GB geom=allcheck
 --------------------------------------------------------

 Structure from the checkpoint file:  "SET_328_BBB292_conf1.geo_075_060_255.chk"
 ---------------------------------------------
 SET_328_BBB292_conf1.geo_075_060_255 geometry
 ---------------------------------------------
 Charge =  1 Multiplicity = 1

                         Standard orientation:
 ---------------------------------------------------------------------
 Center     Atomic      Atomic             Coordinates (Angstroms)
 Number     Number       Type             X           Y           Z
 ---------------------------------------------------------------------
      1          7           0        3.602130    1.215509   -0.280934
      2          1           0        3.551101    2.151724   -0.701147
      3          1           0        4.057516    0.595732   -0.965331
      4          6           0        2.245733    0.704640    0.110350
      5          6           0        2.442330   -0.701429    0.665290
      6          8           0        1.556902   -0.975164    1.621763
      7          1           0        1.680560   -1.903598    1.903118
      8          8           0        3.293370   -1.460570    0.255046
      9          1           0        1.866530    1.364338    0.890553
     10          6           0        1.305499    0.710302   -1.116492
     11          1           0        1.720805    0.039198   -1.874440
     12          1           0        1.316164    1.721877   -1.538028
     13          6           0       -0.108176    0.289691   -0.787231
     14          6           0       -0.964231    1.156109   -0.087737
     15          1           0       -0.625090    2.145694    0.205766
     16          6           0       -2.256319    0.758253    0.229111
     17          8           0       -3.176241    1.516135    0.903071
     18          1           0       -2.805003    2.380955    1.136975
     19          6           0       -2.721997   -0.515814   -0.151458
     20          8           0       -3.990513   -0.895647    0.161662
     21          1           0       -4.405340   -0.156964    0.641604
     22          6           0       -1.879591   -1.370645   -0.850890
     23          1           0       -2.251415   -2.345942   -1.146324
     24          6           0       -0.579261   -0.968236   -1.165451
     25          1           0        0.069413   -1.642181   -1.716191
     26          1           0        4.237793    1.285357    0.524694
 ---------------------------------------------------------------------

 SCF Done:  E(RHF) =  -701.595007893     A.U. after   17 cycles
 E2 =    -0.2199204003D+01 EUMP2 =    -0.70379421189598D+03

 The electronic state is 1-A.
 Alpha  occ. eigenvalues --  -20.78051 -20.73136 -20.71737 -20.69090 -15.90264
 Alpha  occ. eigenvalues --  -11.56993 -11.50076 -11.42181 -11.41992 -11.41365
 Alpha  occ. eigenvalues --  -11.37451 -11.36649 -11.35759 -11.34791  -1.63393
 Alpha  occ. eigenvalues --   -1.53665  -1.53221  -1.51142  -1.49191  -1.28460
 Alpha  occ. eigenvalues --   -1.23493  -1.14659  -1.13049  -1.07225  -1.00152
 Alpha  occ. eigenvalues --   -0.97649  -0.97254  -0.96109  -0.91792  -0.87797
 Alpha  occ. eigenvalues --   -0.86148  -0.85382  -0.84315  -0.82590  -0.80219
 Alpha  occ. eigenvalues --   -0.78418  -0.75765  -0.74421  -0.72601  -0.72237
 Alpha  occ. eigenvalues --   -0.71622  -0.70936  -0.68951  -0.66762  -0.65739
 Alpha  occ. eigenvalues --   -0.64553  -0.63720  -0.62402  -0.61246  -0.58314
 Alpha  occ. eigenvalues --   -0.44775  -0.41540
 Alpha virt. eigenvalues --   -0.11004  -0.07555  -0.07314  -0.05756  -0.04434
 Alpha virt. eigenvalues --   -0.03936  -0.03670  -0.03046  -0.02608  -0.02063
 Alpha virt. eigenvalues --   -0.01295  -0.00644  -0.00110   0.00115   0.00337

 Mulliken charges:
               1
     1  N   -0.518004
     2  H    0.217580
     3  H    0.274029
     4  C    0.800583
     5  C    1.162845
     6  O   -0.749313
     7  H    0.256346
     8  O   -0.756909
     9  H   -0.225971
    10  C    0.391517
    11  H   -0.157402
    12  H   -0.112676
    13  C    1.098468
    14  C    0.319446
    15  H   -0.775631
    16  C    0.295092
    17  O   -0.945430
    18  H    0.221294
    19  C    0.566595
    20  O   -0.919541
    21  H    0.209260
    22  C    0.727844
    23  H   -0.499227
    24  C    0.676093
    25  H   -0.739930
    26  H    0.183044
 Sum of Mulliken charges =   1.00000

 Dipole moment (field-independent basis, Debye):
    X=             12.4848    Y=              7.2338    Z=              0.3843  Tot=             14.4342
 Quadrupole moment (field-independent basis, Debye-Ang):
   XX=            -32.0129   YY=            -60.5370   ZZ=            -74.1416
   XY=             16.9990   XZ=             -5.2332   YZ=             -0.2430

 Normal termination of Gaussian 16 at Sun Jul 18 16:04:31 2021.
