 Gaussian 16, Revision A.03,

 ---------------------------------------------------------------
 #p b3lyp/6-31G(d) opt freq scrf=(iefpcm,read,solvent=n-octanol)
 ---------------------------------------------------------------

 -------------------------------------------
 SET_328_BBB6_conf1.geo_330_225_075 geometry
 -------------------------------------------
 Symbolic Z-matrix:
 Charge =  1 Multiplicity = 1

 SCF Done:  E(RB3LYP) =  -1096.82888593     A.U. after   13 cycles
 SCF Done:  E(RB3LYP) =  -1096.85756846     A.U. after   12 cycles
 SCF Done:  E(RB3LYP) =  -1096.84620755     A.U. after   12 cycles
 SCF Done:  E(RB3LYP) =  -1096.87201674     A.U. after   12 cycles
 SCF Done:  E(RB3LYP) =  -1096.87318463     A.U. after   12 cycles
 SCF Done:  E(RB3LYP) =  -1096.87247575     A.U. after   13 cycles
 SCF Done:  E(RB3LYP) =  -1096.87523394     A.U. after   11 cycles
 SCF Done:  E(RB3LYP) =  -1096.87528822     A.U. after   10 cycles
 SCF Done:  E(RB3LYP) =  -1096.87465460     A.U. after   11 cycles
 SCF Done:  E(RB3LYP) =  -1096.87547791     A.U. after   10 cycles
 SCF Done:  E(RB3LYP) =  -1096.87589429     A.U. after    2 cycles
 SCF Done:  E(RB3LYP) =  -1096.87589429     A.U. after    1 cycles
 SCF Done:  E(RB3LYP) =  -1096.87587648     A.U. after    9 cycles
 SCF Done:  E(RB3LYP) =  -1096.87587439     A.U. after    7 cycles
 SCF Done:  E(RB3LYP) =  -1096.87587378     A.U. after    6 cycles
 SCF Done:  E(RB3LYP) =  -1096.87587775     A.U. after    8 cycles
 Optimization completed.
    -- Stationary point found.
 Normal termination of Gaussian 16 at Sun Jul 18 18:55:03 2021.

 --------------------------------------------------------------------
 #P Geom=AllCheck Guess=TCheck SCRF=Check GenChk RB3LYP/6-31G(d) Freq
 --------------------------------------------------------------------

 Structure from the checkpoint file:  "SET_328_BBB6_conf1.geo_330_225_075.chk"
 -------------------------------------------
 SET_328_BBB6_conf1.geo_330_225_075 geometry
 -------------------------------------------
 Charge =  1 Multiplicity = 1

 SCF Done:  E(RB3LYP) =  -1096.87587775     A.U. after    1 cycles

  Exact polarizability: 236.294 -12.680 196.494 -18.181 -10.179 124.203
 Approx polarizability: 272.580 -25.642 262.207 -23.527 -13.224 148.703

                      1                      2                      3
                      A                      A                      A
 Frequencies --     46.3631                53.2080                72.2612
 Red. masses --      4.1256                 4.6875                 3.4380
 Frc consts  --      0.0052                 0.0078                 0.0106
 IR Inten    --      0.4305                 1.6144                 1.2825

                      4                      5                      6
                      A                      A                      A
 Frequencies --    108.3498               136.1987               147.4890
 Red. masses --      4.6521                 4.4006                 5.7190
 Frc consts  --      0.0322                 0.0481                 0.0733
 IR Inten    --      5.7788                 7.4958                 1.2253

                      7                      8                      9
                      A                      A                      A
 Frequencies --    184.6300               205.8551               214.3259
 Red. masses --      2.5244                 4.6763                 1.1485
 Frc consts  --      0.0507                 0.1168                 0.0311
 IR Inten    --      2.0943                 0.0983                 0.3892

                     10                     11                     12
                      A                      A                      A
 Frequencies --    243.4614               253.1719               269.1150
 Red. masses --      1.4086                 2.6398                 1.6363
 Frc consts  --      0.0492                 0.0997                 0.0698
 IR Inten    --      2.1737                 1.1551                 3.2258

                     13                     14                     15
                      A                      A                      A
 Frequencies --    280.4429               298.3918               320.2016
 Red. masses --      1.9554                 1.4487                 1.3176
 Frc consts  --      0.0906                 0.0760                 0.0796
 IR Inten    --      3.2356                 1.1873                 0.4225

                     16                     17                     18
                      A                      A                      A
 Frequencies --    330.8134               353.8219               374.3536
 Red. masses --      2.7649                 3.9070                 3.4389
 Frc consts  --      0.1783                 0.2882                 0.2839
 IR Inten    --      2.2311                28.4222                 2.6129

                     19                     20                     21
                      A                      A                      A
 Frequencies --    384.7873               405.7157               439.6545
 Red. masses --      2.4623                 7.0063                 3.1475
 Frc consts  --      0.2148                 0.6795                 0.3585
 IR Inten    --     13.4710                 2.6199                 1.6158

                     22                     23                     24
                      A                      A                      A
 Frequencies --    467.7780               486.0867               512.0866
 Red. masses --      3.9080                 2.7286                 4.2910
 Frc consts  --      0.5038                 0.3799                 0.6630
 IR Inten    --      5.0100                 1.2601                 7.4480

                     25                     26                     27
                      A                      A                      A
 Frequencies --    535.9037               552.7220               665.9460
 Red. masses --      2.7166                 3.3906                 6.2191
 Frc consts  --      0.4597                 0.6103                 1.6250
 IR Inten    --      4.8535                54.6370                 5.0156

                     28                     29                     30
                      A                      A                      A
 Frequencies --    683.6058               709.3179               746.2504
 Red. masses --      3.0982                 4.4274                 3.0278
 Frc consts  --      0.8530                 1.3125                 0.9934
 IR Inten    --      7.3864                12.1258                28.1408

                     31                     32                     33
                      A                      A                      A
 Frequencies --    764.0717               821.0099               828.1032
 Red. masses --      3.4342                 3.5324                 1.6740
 Frc consts  --      1.1812                 1.4029                 0.6764
 IR Inten    --     20.5251                58.4091                20.2981

                     34                     35                     36
                      A                      A                      A
 Frequencies --    870.7910               906.8034               921.4124
 Red. masses --      2.5782                 1.4286                 2.3312
 Frc consts  --      1.1518                 0.6921                 1.1661
 IR Inten    --      8.7208                16.1005                 6.0480

                     37                     38                     39
                      A                      A                      A
 Frequencies --    950.8139               958.0966               962.9602
 Red. masses --      1.6912                 1.3673                 1.3395
 Frc consts  --      0.9008                 0.7395                 0.7319
 IR Inten    --      1.9529                 0.6886                 5.2813

                     40                     41                     42
                      A                      A                      A
 Frequencies --    970.6947              1002.9653              1009.6968
 Red. masses --      1.7467                 3.1559                 1.3428
 Frc consts  --      0.9697                 1.8705                 0.8066
 IR Inten    --     17.2874                92.4344                 8.5725

                     43                     44                     45
                      A                      A                      A
 Frequencies --   1014.1199              1016.0288              1049.6539
 Red. masses --      1.3229                 4.4768                 2.0626
 Frc consts  --      0.8016                 2.7229                 1.3390
 IR Inten    --      0.9056                 7.4007                19.8614

                     46                     47                     48
                      A                      A                      A
 Frequencies --   1081.9788              1101.9390              1109.8836
 Red. masses --      1.5406                 1.8903                 1.9941
 Frc consts  --      1.0627                 1.3524                 1.4473
 IR Inten    --      3.8257                16.0424                24.7785

                     49                     50                     51
                      A                      A                      A
 Frequencies --   1125.4076              1135.9860              1161.8597
 Red. masses --      1.5279                 1.6277                 1.9590
 Frc consts  --      1.1402                 1.2376                 1.5581
 IR Inten    --     11.6891                11.4552                97.2004

                     52                     53                     54
                      A                      A                      A
 Frequencies --   1200.7240              1227.7316              1251.9577
 Red. masses --      1.1187                 2.0868                 1.6800
 Frc consts  --      0.9503                 1.8532                 1.5514
 IR Inten    --      4.2750                69.9639                52.6126

                     55                     56                     57
                      A                      A                      A
 Frequencies --   1276.6446              1292.4583              1323.1620
 Red. masses --      2.8298                 2.4684                 1.5940
 Frc consts  --      2.7173                 2.4294                 1.6442
 IR Inten    --    317.2448                17.0366                 5.0629

                     58                     59                     60
                      A                      A                      A
 Frequencies --   1341.6154              1367.6101              1389.4644
 Red. masses --      1.6213                 5.1915                 1.3188
 Frc consts  --      1.7193                 5.7210                 1.5001
 IR Inten    --     31.7590                10.8553                50.8519

                     61                     62                     63
                      A                      A                      A
 Frequencies --   1437.9360              1443.1208              1449.6518
 Red. masses --      1.2372                 1.2466                 1.2397
 Frc consts  --      1.5072                 1.5296                 1.5350
 IR Inten    --     22.0289                 6.1856                36.6379

                     64                     65                     66
                      A                      A                      A
 Frequencies --   1459.5973              1472.0221              1475.1657
 Red. masses --      2.9840                 1.1935                 1.1799
 Frc consts  --      3.7455                 1.5237                 1.5128
 IR Inten    --     25.5172                32.9848                33.8607

                     67                     68                     69
                      A                      A                      A
 Frequencies --   1500.0870              1508.4490              1513.8720
 Red. masses --      1.1308                 1.0473                 1.0463
 Frc consts  --      1.4993                 1.4040                 1.4128
 IR Inten    --     69.4733                 0.6535                 1.2545

                     70                     71                     72
                      A                      A                      A
 Frequencies --   1519.1398              1523.7147              1528.4259
 Red. masses --      1.0698                 1.8269                 1.1470
 Frc consts  --      1.4546                 2.4991                 1.5787
 IR Inten    --     32.7075                14.2763                27.0945

                     73                     74                     75
                      A                      A                      A
 Frequencies --   1538.2304              1542.7900              1561.4523
 Red. masses --      1.0737                 1.0609                 1.1107
 Frc consts  --      1.4969                 1.4878                 1.5956
 IR Inten    --     32.1737                25.0666                34.1789

                     76                     77                     78
                      A                      A                      A
 Frequencies --   1567.1648              1622.7025              1647.1556
 Red. masses --      1.0798                 5.8031                 5.6897
 Frc consts  --      1.5625                 9.0030                 9.0951
 IR Inten    --      2.6266                87.7782                28.8608

                     79                     80                     81
                      A                      A                      A
 Frequencies --   1714.7990              1760.6427              3087.7140
 Red. masses --      1.2279                 4.4356                 1.0363
 Frc consts  --      2.1274                 8.1010                 5.8210
 IR Inten    --    302.7110               119.7020                15.8868

                     82                     83                     84
                      A                      A                      A
 Frequencies --   3092.3847              3096.9970              3101.7575
 Red. masses --      1.0358                 1.0373                 1.0360
 Frc consts  --      5.8360                 5.8620                 5.8727
 IR Inten    --     23.1953                 0.3309                 7.0479

                     85                     86                     87
                      A                      A                      A
 Frequencies --   3157.2263              3162.2057              3163.7864
 Red. masses --      1.1011                 1.1028                 1.1017
 Frc consts  --      6.4667                 6.4970                 6.4971
 IR Inten    --     21.2223                 8.1396                23.8573

                     88                     89                     90
                      A                      A                      A
 Frequencies --   3168.7191              3170.4346              3174.6953
 Red. masses --      1.0947                 1.1007                 1.1029
 Frc consts  --      6.4761                 6.5189                 6.5493
 IR Inten    --      7.6797                19.4811                 1.2042

                     91                     92                     93
                      A                      A                      A
 Frequencies --   3176.8708              3180.7177              3195.2052
 Red. masses --      1.1017                 1.0955                 1.1010
 Frc consts  --      6.5512                 6.5300                 6.6227
 IR Inten    --     22.2416                19.0782                 8.3871

                     94                     95                     96
                      A                      A                      A
 Frequencies --   3229.1604              3244.5645              3247.7676
 Red. masses --      1.0889                 1.0908                 1.0927
 Frc consts  --      6.6900                 6.7654                 6.7908
 IR Inten    --      5.9223                 1.4416                 0.6224

                     97                     98                     99
                      A                      A                      A
 Frequencies --   3253.2436              3297.5973              3461.7320
 Red. masses --      1.0946                 1.0676                 1.0769
 Frc consts  --      6.8256                 6.8398                 7.6033
 IR Inten    --      4.9100               173.7007               156.9081

 - Thermochemistry -
 -------------------
 Temperature   298.150 Kelvin.  Pressure   1.00000 Atm.
 Atom     1 has atomic number  6 and mass  12.00000

 Molecular mass:   240.11552 amu.
 Principal axes and moments of inertia in atomic units:
                           1         2         3
     Eigenvalues --  2267.430997606.588478458.00372
           X            0.99959   0.02826   0.00432
           Y           -0.02818   0.99945  -0.01773
           Z           -0.00482   0.01760   0.99983
 This molecule is an asymmetric top.
 Rotational symmetry number  1.
 Warning -- assumption of classical behavior for rotation
           may cause significant error
 Rotational temperatures (Kelvin)      0.03820     0.01139     0.01024
 Rotational constants (GHZ):           0.79594     0.23726     0.21338
 Zero-point vibrational energy     803692.3 (Joules/Mol)
                                  192.08706 (Kcal/Mol)
 Warning -- explicit consideration of  26 degrees of freedom as
           vibrations may cause significant error
 Vibrational temperatures:     66.71    76.55   103.97   155.89   195.96
          (Kelvin)            212.20   265.64   296.18   308.37   350.29
                              364.26   387.20   403.49   429.32   460.70
                              475.97   509.07   538.61   553.62   583.73
                              632.56   673.03   699.37   736.78   771.05
                              795.24   958.15   983.56  1020.55  1073.69
                             1099.33  1181.25  1191.46  1252.87  1304.69
                             1325.71  1368.01  1378.49  1385.48  1396.61
                             1443.04  1452.73  1459.09  1461.84  1510.22
                             1556.73  1585.44  1596.87  1619.21  1634.43
                             1671.66  1727.57  1766.43  1801.29  1836.81
                             1859.56  1903.74  1930.29  1967.69  1999.13
                             2068.87  2076.33  2085.73  2100.03  2117.91
                             2122.43  2158.29  2170.32  2178.12  2185.70
                             2192.29  2199.06  2213.17  2219.73  2246.58
                             2254.80  2334.71  2369.89  2467.21  2533.17
                             4442.53  4449.25  4455.89  4462.74  4542.54
                             4549.71  4551.98  4559.08  4561.55  4567.68
                             4570.81  4576.34  4597.19  4646.04  4668.20
                             4672.81  4680.69  4744.51  4980.66

 Zero-point correction=                           0.306110 (Hartree/Particle)
 Thermal correction to Energy=                    0.322397
 Thermal correction to Enthalpy=                  0.323341
 Thermal correction to Gibbs Free Energy=         0.262813
 Sum of electronic and zero-point Energies=          -1096.569768
 Sum of electronic and thermal Energies=             -1096.553481
 Sum of electronic and thermal Enthalpies=           -1096.552537
 Sum of electronic and thermal Free Energies=        -1096.613065

                     E (Thermal)             CV                S
                      KCal/Mol        Cal/Mol-Kelvin    Cal/Mol-Kelvin
 Total                  202.307             63.165            127.393
 Electronic               0.000              0.000              0.000
 Translational            0.889              2.981             42.329
 Rotational               0.889              2.981             33.344
 Vibrational            200.530             57.204             51.719
 Vibration     1          0.595              1.979              4.967
 Vibration     2          0.596              1.976              4.694
 Vibration     3          0.598              1.967              4.091
 Vibration     4          0.606              1.943              3.298
 Vibration     5          0.614              1.917              2.857
 Vibration     6          0.617              1.905              2.704
 Vibration     7          0.631              1.861              2.281
 Vibration     8          0.640              1.832              2.080
 Vibration     9          0.644              1.819              2.007
 Vibration    10          0.659              1.774              1.777
 Vibration    11          0.664              1.757              1.708
 Vibration    12          0.674              1.730              1.602
 Vibration    13          0.680              1.710              1.531
 Vibration    14          0.691              1.677              1.426
 Vibration    15          0.706              1.635              1.309
 Vibration    16          0.713              1.614              1.256
 Vibration    17          0.730              1.567              1.149
 Vibration    18          0.745              1.525              1.062
 Vibration    19          0.754              1.503              1.020
 Vibration    20          0.771              1.458              0.942
 Vibration    21          0.800              1.384              0.828
 Vibration    22          0.825              1.322              0.744
 Vibration    23          0.842              1.281              0.694
 Vibration    24          0.867              1.223              0.629
 Vibration    25          0.891              1.171              0.574
 Vibration    26          0.908              1.134              0.539

 Optimization completed.
    -- Stationary point found.
 Normal termination of Gaussian 16 at Sun Jul 18 19:27:42 2021.

 ----------------------------------------------------------------------
 #p b3lyp/6-31G(d) scrf=(iefpcm,read,solvent=n-octanol) geom=allcheck g
 uess=read
 ----------------------------------------------------------------------

 Structure from the checkpoint file:  "SET_328_BBB6_conf1.geo_330_225_075.chk"
 -------------------------------------------
 SET_328_BBB6_conf1.geo_330_225_075 geometry
 -------------------------------------------
 Charge =  1 Multiplicity = 1

 SCF Done:  E(RB3LYP) =  -1096.87735685     A.U. after    1 cycles
 Normal termination of Gaussian 16 at Sun Jul 18 19:28:35 2021.

 -----------------------------
 #p B3LYP/6-31G* geom=allcheck
 -----------------------------

 Structure from the checkpoint file:  "SET_328_BBB6_conf1.geo_330_225_075.chk"
 -------------------------------------------
 SET_328_BBB6_conf1.geo_330_225_075 geometry
 -------------------------------------------
 Charge =  1 Multiplicity = 1

 SCF Done:  E(RB3LYP) =  -1096.79212838     A.U. after   14 cycles
 Normal termination of Gaussian 16 at Sun Jul 18 19:30:43 2021.
 Gaussian 16:  ES64L-G16RevA.03 25-Dec-2016

 --------------------------------------------------------
 #p mp2/aug-cc-pVDZ scf=tight maxdisk=180GB geom=allcheck
 --------------------------------------------------------

 Structure from the checkpoint file:  "SET_328_BBB6_conf1.geo_330_225_075.chk"
 -------------------------------------------
 SET_328_BBB6_conf1.geo_330_225_075 geometry
 -------------------------------------------
 Charge =  1 Multiplicity = 1

                         Standard orientation:
 ---------------------------------------------------------------------
 Center     Atomic      Atomic             Coordinates (Angstroms)
 Number     Number       Type             X           Y           Z
 ---------------------------------------------------------------------
      1          6           0       -0.927811   -0.297245    2.457461
      2          1           0       -1.494370   -1.146843    2.844985
      3          1           0       -1.215619    0.604263    3.003572
      4          1           0        0.131133   -0.483886    2.644046
      5          6           0       -1.176047   -0.126339    0.952341
      6          7           0       -2.628338    0.174522    0.683261
      7          6           0       -3.269545   -0.467610   -0.567067
      8          6           0       -2.417653   -0.120550   -1.786674
      9          1           0       -1.415162   -0.549699   -1.725524
     10          1           0       -2.332140    0.957751   -1.927516
     11          1           0       -2.893005   -0.538387   -2.676224
     12          6           0       -3.343922   -1.978351   -0.340561
     13          1           0       -2.355660   -2.433233   -0.233463
     14          1           0       -3.822409   -2.440534   -1.205958
     15          1           0       -3.939131   -2.226183    0.541605
     16          6           0       -4.666600    0.144069   -0.689025
     17          1           0       -4.615106    1.223588   -0.848562
     18          1           0       -5.279113   -0.052779    0.194465
     19          1           0       -5.174536   -0.295710   -1.549771
     20          1           0       -2.688327    1.207557    0.609211
     21          1           0       -0.931579   -1.042352    0.418181
     22          6           0       -0.363279    1.066610    0.407274
     23          8           0       -0.938620    2.138001    0.263275
     24          6           0        1.077178    0.898185    0.114425
     25          6           0        1.706032   -0.356337    0.139538
     26          1           0        1.166914   -1.262019    0.386422
     27          6           0        3.057902   -0.442165   -0.174007
     28         17           0        3.843620   -2.009253   -0.153126
     29          6           0        3.796986    0.691898   -0.508045
     30          1           0        4.848616    0.597832   -0.749138
     31          6           0        3.166417    1.937447   -0.529727
     32          1           0        3.739163    2.820402   -0.789633
     33          6           0        1.814770    2.044987   -0.223803
     34          1           0        1.305634    3.000540   -0.240174
     35          1           0       -3.196091   -0.076269    1.504814
 ---------------------------------------------------------------------

 SCF Done:  E(RHF) =  -1092.04885415     A.U. after   18 cycles
 E2 =    -0.2361073946D+01 EUMP2 =    -0.10944099280953D+04

 The electronic state is 1-A.
 Alpha  occ. eigenvalues -- -104.94270 -20.71487 -15.84354 -11.50314 -11.46730
 Alpha  occ. eigenvalues --  -11.46121 -11.42585 -11.39624 -11.39283 -11.38901
 Alpha  occ. eigenvalues --  -11.38162 -11.38066 -11.37799 -11.37743 -11.37549
 Alpha  occ. eigenvalues --  -11.36914 -10.66822  -8.13603  -8.13262  -8.13247
 Alpha  occ. eigenvalues --   -1.55328  -1.46823  -1.31268  -1.25847  -1.23832
 Alpha  occ. eigenvalues --   -1.20362  -1.16418  -1.12096  -1.10357  -1.10227
 Alpha  occ. eigenvalues --   -1.06320  -1.00340  -0.95433  -0.95199  -0.92743
 Alpha  occ. eigenvalues --   -0.89184  -0.84673  -0.83084  -0.82245  -0.79130
 Alpha  occ. eigenvalues --   -0.77748  -0.76633  -0.75690  -0.75220  -0.73387
 Alpha  occ. eigenvalues --   -0.72378  -0.71830  -0.70527  -0.69709  -0.68991
 Alpha  occ. eigenvalues --   -0.68885  -0.67921  -0.67430  -0.66343  -0.65333
 Alpha  occ. eigenvalues --   -0.64582  -0.63702  -0.63428  -0.62679  -0.57983
 Alpha  occ. eigenvalues --   -0.57590  -0.55773  -0.47670  -0.45218
 Alpha virt. eigenvalues --   -0.07512  -0.07177  -0.05545  -0.05152  -0.04657
 Alpha virt. eigenvalues --   -0.03386  -0.03371  -0.03236  -0.02928  -0.02732
 Alpha virt. eigenvalues --   -0.01873  -0.01484  -0.01198  -0.00701  -0.00443

 Mulliken charges:
               1
     1  C    1.012976
     2  H   -0.076437
     3  H    0.029317
     4  H   -0.030137
     5  C   -0.190904
     6  N   -0.383553
     7  C   -3.680270
     8  C    1.357341
     9  H    0.015858
    10  H    0.024568
    11  H   -0.062702
    12  C    1.361478
    13  H   -0.017044
    14  H    0.008418
    15  H    0.008671
    16  C    1.332962
    17  H   -0.016339
    18  H   -0.000243
    19  H    0.064377
    20  H    0.258136
    21  H   -0.477118
    22  C    0.345263
    23  O   -1.015276
    24  C    1.988114
    25  C    1.337559
    26  H   -0.771298
    27  C   -0.985812
    28  Cl  -0.341123
    29  C    0.720009
    30  H   -0.410031
    31  C    0.551309
    32  H   -0.437151
    33  C   -0.037850
    34  H   -0.656661
    35  H    0.173594
 Sum of Mulliken charges =   1.00000

 Dipole moment (field-independent basis, Debye):
    X=             -8.1421    Y=             -0.6770    Z=              1.6011  Tot=              8.3256
 Quadrupole moment (field-independent basis, Debye-Ang):
   XX=            -50.1968   YY=            -98.2500   ZZ=            -93.3278
   XY=             13.4469   XZ=             -4.6978   YZ=             -1.8159

 Normal termination of Gaussian 16 at Sun Jul 18 20:23:52 2021.
