 Gaussian 16, Revision A.03,

 ---------------------------------------------------------------
 #p b3lyp/6-31G(d) opt freq scrf=(iefpcm,read,solvent=n-octanol)
 ---------------------------------------------------------------

 ---------------------------------------------
 SET_328_BBB321_conf1.geo_180_150_120 geometry
 ---------------------------------------------
 Symbolic Z-matrix:
 Charge =  1 Multiplicity = 1

 SCF Done:  E(RB3LYP) =  -1212.57990511     A.U. after   14 cycles
 SCF Done:  E(RB3LYP) =  -1212.67827080     A.U. after   12 cycles
 SCF Done:  E(RB3LYP) =  -1212.72398618     A.U. after   13 cycles
 SCF Done:  E(RB3LYP) =  -1212.76253149     A.U. after   12 cycles
 SCF Done:  E(RB3LYP) =  -1212.78215283     A.U. after   12 cycles
 SCF Done:  E(RB3LYP) =  -1212.79423997     A.U. after   11 cycles
 SCF Done:  E(RB3LYP) =  -1212.80327554     A.U. after   12 cycles
 SCF Done:  E(RB3LYP) =  -1212.80892054     A.U. after   14 cycles
 SCF Done:  E(RB3LYP) =  -1212.81478029     A.U. after   11 cycles
 SCF Done:  E(RB3LYP) =  -1212.81723695     A.U. after   11 cycles
 SCF Done:  E(RB3LYP) =  -1212.81929886     A.U. after    7 cycles
 SCF Done:  E(RB3LYP) =  -1212.81930161     A.U. after    8 cycles
 SCF Done:  E(RB3LYP) =  -1212.81929844     A.U. after    8 cycles
 SCF Done:  E(RB3LYP) =  -1212.81929799     A.U. after    6 cycles
 SCF Done:  E(RB3LYP) =  -1212.81929833     A.U. after    7 cycles
 SCF Done:  E(RB3LYP) =  -1212.81930150     A.U. after    8 cycles
 Optimization completed.
    -- Stationary point found.
 Normal termination of Gaussian 16 at Sun Jul 18 17:57:33 2021.

 --------------------------------------------------------------------
 #P Geom=AllCheck Guess=TCheck SCRF=Check GenChk RB3LYP/6-31G(d) Freq
 --------------------------------------------------------------------

 Structure from the checkpoint file:  "SET_328_BBB321_conf1.geo_180_150_120.chk"
 ---------------------------------------------
 SET_328_BBB321_conf1.geo_180_150_120 geometry
 ---------------------------------------------
 Charge =  1 Multiplicity = 1

 SCF Done:  E(RB3LYP) =  -1212.81930150     A.U. after    1 cycles

  Exact polarizability: 354.568   5.477 258.754   1.073  -2.160  82.052
 Approx polarizability: 383.024  18.689 356.978   1.300  -3.649 109.907

 ******    1 imaginary frequencies (negative Signs) ******

                      1                      2                      3
                      A                      A                      A
 Frequencies --    -34.6516                33.9607                48.0466
 Red. masses --      1.1277                 5.0187                 6.2709
 Frc consts  --      0.0008                 0.0034                 0.0085
 IR Inten    --      0.3312                 4.2594                 7.7437

                      4                      5                      6
                      A                      A                      A
 Frequencies --     75.6944                79.8443                89.3285
 Red. masses --      5.4259                 5.5066                 3.3749
 Frc consts  --      0.0183                 0.0207                 0.0159
 IR Inten    --      8.1808                 3.6650                 2.2455

                      7                      8                      9
                      A                      A                      A
 Frequencies --     91.9422               116.3073               133.0482
 Red. masses --      5.5085                 7.1134                 5.1118
 Frc consts  --      0.0274                 0.0567                 0.0533
 IR Inten    --      4.8633                 0.3309                 1.4232

                     10                     11                     12
                      A                      A                      A
 Frequencies --    201.0824               213.8876               251.3609
 Red. masses --      6.6902                 1.2075                 4.8333
 Frc consts  --      0.1594                 0.0325                 0.1799
 IR Inten    --     18.1683               297.3878                14.9692

                     13                     14                     15
                      A                      A                      A
 Frequencies --    258.7230               262.2175               279.5199
 Red. masses --      4.6438                 4.8965                 4.6218
 Frc consts  --      0.1831                 0.1984                 0.2128
 IR Inten    --      1.4018                 1.7631                 7.0828

                     16                     17                     18
                      A                      A                      A
 Frequencies --    331.8417               342.3383               360.0920
 Red. masses --      6.6908                 4.0650                 7.1498
 Frc consts  --      0.4341                 0.2807                 0.5462
 IR Inten    --     24.7537                 0.5126                 1.1947

                     19                     20                     21
                      A                      A                      A
 Frequencies --    385.8760               387.2574               452.7957
 Red. masses --      1.3338                 2.9038                 2.9737
 Frc consts  --      0.1170                 0.2566                 0.3592
 IR Inten    --      0.2696                 3.1551                37.8375

                     22                     23                     24
                      A                      A                      A
 Frequencies --    457.0486               493.6545               522.2388
 Red. masses --      1.1692                 5.0224                 2.0584
 Frc consts  --      0.1439                 0.7211                 0.3308
 IR Inten    --    373.8432                 2.8850                76.1528

                     25                     26                     27
                      A                      A                      A
 Frequencies --    539.6155               550.4988               557.0428
 Red. masses --      4.2249                 2.4717                 1.7680
 Frc consts  --      0.7248                 0.4413                 0.3232
 IR Inten    --     35.7358                 9.0599               151.0850

                     28                     29                     30
                      A                      A                      A
 Frequencies --    576.5696               602.3285               616.2929
 Red. masses --      1.8933                 3.2074                 7.7799
 Frc consts  --      0.3708                 0.6856                 1.7410
 IR Inten    --      7.5963                17.8342                 2.9610

                     31                     32                     33
                      A                      A                      A
 Frequencies --    625.1881               666.6067               694.5911
 Red. masses --      1.6734                 6.2749                 2.9069
 Frc consts  --      0.3854                 1.6428                 0.8263
 IR Inten    --     25.0686                 4.8381                17.0114

                     34                     35                     36
                      A                      A                      A
 Frequencies --    696.1231               702.6405               711.6607
 Red. masses --      3.8270                 1.6605                 6.2031
 Frc consts  --      1.0927                 0.4830                 1.8510
 IR Inten    --      0.0171                 7.0830                 6.6825

                     37                     38                     39
                      A                      A                      A
 Frequencies --    731.5835               746.7199               824.7105
 Red. masses --      1.3276                 1.9748                 5.8671
 Frc consts  --      0.4186                 0.6488                 2.3511
 IR Inten    --     23.2577                53.8885                33.2007

                     40                     41                     42
                      A                      A                      A
 Frequencies --    826.7358               862.2767               875.1247
 Red. masses --      1.4135                 5.6412                 1.8552
 Frc consts  --      0.5692                 2.4712                 0.8371
 IR Inten    --     14.9628                 9.9754                30.6091

                     43                     44                     45
                      A                      A                      A
 Frequencies --    883.3536               935.6318               950.6100
 Red. masses --      4.0111                 1.3462                 5.4772
 Frc consts  --      1.8441                 0.6944                 2.9162
 IR Inten    --     20.4350                 0.7866                 1.8510

                     46                     47                     48
                      A                      A                      A
 Frequencies --    997.4000              1000.5929              1006.9776
 Red. masses --      2.9267                 1.2706                 4.5494
 Frc consts  --      1.7154                 0.7495                 2.7180
 IR Inten    --     22.9374                 1.8635                13.9827

                     49                     50                     51
                      A                      A                      A
 Frequencies --   1017.3068              1037.5179              1062.1178
 Red. masses --      5.4218                 2.1044                 1.7042
 Frc consts  --      3.3059                 1.3347                 1.1327
 IR Inten    --      0.2251                34.7832                 8.4194

                     52                     53                     54
                      A                      A                      A
 Frequencies --   1085.7197              1101.8511              1129.3025
 Red. masses --      1.4032                 1.8196                 1.6200
 Frc consts  --      0.9746                 1.3016                 1.2172
 IR Inten    --      5.8853                21.7540                15.8289

                     55                     56                     57
                      A                      A                      A
 Frequencies --   1155.8815              1213.9261              1225.4289
 Red. masses --      1.5739                 1.1631                 2.1133
 Frc consts  --      1.2389                 1.0098                 1.8697
 IR Inten    --     17.6400                 0.6625               101.2934

                     58                     59                     60
                      A                      A                      A
 Frequencies --   1238.4369              1268.7953              1294.0022
 Red. masses --      1.8852                 3.0167                 2.3594
 Frc consts  --      1.7036                 2.8613                 2.3276
 IR Inten    --    114.7397               131.6048                73.6884

                     61                     62                     63
                      A                      A                      A
 Frequencies --   1337.3116              1354.3160              1378.2603
 Red. masses --      2.5467                 2.6069                 3.8987
 Frc consts  --      2.6834                 2.8171                 4.3634
 IR Inten    --     14.7401               242.0228                94.9061

                     64                     65                     66
                      A                      A                      A
 Frequencies --   1417.5748              1463.8495              1485.3693
 Red. masses --      1.3005                 2.6366                 1.7863
 Frc consts  --      1.5398                 3.3288                 2.3220
 IR Inten    --     42.5589                41.3830                18.5784

                     67                     68                     69
                      A                      A                      A
 Frequencies --   1498.1114              1508.4134              1522.7460
 Red. masses --      1.1051                 1.0472                 2.8231
 Frc consts  --      1.4613                 1.4039                 3.8568
 IR Inten    --     26.8042                12.7212               395.6477

                     70                     71                     72
                      A                      A                      A
 Frequencies --   1547.8798              1567.8846              1594.9815
 Red. masses --      2.2325                 3.6513                 2.4861
 Frc consts  --      3.1515                 5.2885                 3.7262
 IR Inten    --    351.0882               256.9907               346.9708

                     73                     74                     75
                      A                      A                      A
 Frequencies --   1601.0907              1616.4726              1650.7094
 Red. masses --      3.3925                 1.4164                 4.0368
 Frc consts  --      5.1239                 2.1806                 6.4808
 IR Inten    --    129.0631               273.4143                83.0804

                     76                     77                     78
                      A                      A                      A
 Frequencies --   1656.6980              1669.6037              1717.3537
 Red. masses --      1.6851                 5.6616                 4.1887
 Frc consts  --      2.7249                 9.2985                 7.2786
 IR Inten    --    798.5500               162.8155               884.1350

                     79                     80                     81
                      A                      A                      A
 Frequencies --   1774.8367              3079.4814              3142.0143
 Red. masses --      7.5936                 1.0389                 1.1011
 Frc consts  --     14.0933                 5.8047                 6.4044
 IR Inten    --    319.7242                 4.9946                10.5358

                     82                     83                     84
                      A                      A                      A
 Frequencies --   3196.3451              3209.8694              3212.9168
 Red. masses --      1.1013                 1.0895                 1.0895
 Frc consts  --      6.6294                 6.6136                 6.6265
 IR Inten    --     10.7462                25.3542                15.4957

                     85                     86                     87
                      A                      A                      A
 Frequencies --   3253.2274              3292.6366              3305.9220
 Red. masses --      1.0909                 1.0919                 1.0943
 Frc consts  --      6.8024                 6.9746                 7.0465
 IR Inten    --      6.6294                 9.7244                 6.9892

                     88                     89                     90
                      A                      A                      A
 Frequencies --   3488.4959              3560.3045              3578.7206
 Red. masses --      1.0526                 1.0489                 1.0779
 Frc consts  --      7.5471                 7.8338                 8.1339
 IR Inten    --    437.0406               235.3101               292.3921

                     91                     92                     93
                      A                      A                      A
 Frequencies --   3597.9153              3640.8534              3671.0168
 Red. masses --      1.0772                 1.1015                 1.1081
 Frc consts  --      8.2156                 8.6027                 8.7980
 IR Inten    --     51.3462               422.5938               232.4559

 - Thermochemistry -
 -------------------
 Temperature   298.150 Kelvin.  Pressure   1.00000 Atm.
 Atom     1 has atomic number  6 and mass  12.00000

 Molecular mass:   276.09191 amu.
 Principal axes and moments of inertia in atomic units:
                           1         2         3
     Eigenvalues --  1989.35632********************
           X            0.99988  -0.01529   0.00042
           Y            0.01529   0.99988  -0.00227
           Z           -0.00039   0.00228   1.00000
 This molecule is an asymmetric top.
 Rotational symmetry number  1.
 Warning -- assumption of classical behavior for rotation
           may cause significant error
 Rotational temperatures (Kelvin)      0.04354     0.00624     0.00547
 Rotational constants (GHZ):           0.90720     0.13012     0.11406
    1 imaginary frequencies ignored.
 Zero-point vibrational energy     684697.3 (Joules/Mol)
                                  163.64658 (Kcal/Mol)
 Warning -- explicit consideration of  29 degrees of freedom as
           vibrations may cause significant error
 Vibrational temperatures:     48.86    69.13   108.91   114.88   128.52
          (Kelvin)            132.28   167.34   191.43   289.31   307.74
                              361.65   372.24   377.27   402.17   477.45
                              492.55   518.09   555.19   557.18   651.47
                              657.59   710.26   751.39   776.39   792.04
                              801.46   829.56   866.62   886.71   899.51
                              959.10   999.36  1001.57  1010.94  1023.92
                             1052.59  1074.36  1186.57  1189.49  1240.62
                             1259.11  1270.95  1346.17  1367.72  1435.04
                             1439.63  1448.82  1463.68  1492.76  1528.15
                             1562.11  1585.32  1624.81  1663.06  1746.57
                             1763.12  1781.83  1825.51  1861.78  1924.09
                             1948.56  1983.01  2039.57  2106.15  2137.12
                             2155.45  2170.27  2190.89  2227.05  2255.84
                             2294.82  2303.61  2325.74  2375.00  2383.62
                             2402.19  2470.89  2553.59  4430.69  4520.66
                             4598.83  4618.29  4622.67  4680.67  4737.37
                             4756.48  5019.17  5122.48  5148.98  5176.60
                             5238.38  5281.77

 Zero-point correction=                           0.260787 (Hartree/Particle)
 Thermal correction to Energy=                    0.278284
 Thermal correction to Enthalpy=                  0.279228
 Thermal correction to Gibbs Free Energy=         0.214721
 Sum of electronic and zero-point Energies=          -1212.558514
 Sum of electronic and thermal Energies=             -1212.541018
 Sum of electronic and thermal Enthalpies=           -1212.540073
 Sum of electronic and thermal Free Energies=        -1212.604580

                     E (Thermal)             CV                S
                      KCal/Mol        Cal/Mol-Kelvin    Cal/Mol-Kelvin
 Total                  174.626             67.498            135.766
 Electronic               0.000              0.000              0.000
 Translational            0.889              2.981             42.745
 Rotational               0.889              2.981             34.434
 Vibrational            172.848             61.537             58.587
 Vibration     1          0.594              1.983              5.583
 Vibration     2          0.595              1.978              4.896
 Vibration     3          0.599              1.965              4.000
 Vibration     4          0.600              1.963              3.895
 Vibration     5          0.602              1.957              3.675
 Vibration     6          0.602              1.955              3.618
 Vibration     7          0.608              1.936              3.161
 Vibration     8          0.613              1.920              2.902
 Vibration     9          0.638              1.838              2.123
 Vibration    10          0.644              1.820              2.010
 Vibration    11          0.663              1.760              1.721
 Vibration    12          0.668              1.748              1.670
 Vibration    13          0.670              1.742              1.647
 Vibration    14          0.680              1.711              1.537
 Vibration    15          0.714              1.612              1.251
 Vibration    16          0.721              1.591              1.201
 Vibration    17          0.735              1.554              1.122
 Vibration    18          0.755              1.500              1.016
 Vibration    19          0.756              1.497              1.011
 Vibration    20          0.811              1.355              0.787
 Vibration    21          0.815              1.345              0.775
 Vibration    22          0.849              1.264              0.674
 Vibration    23          0.877              1.201              0.605
 Vibration    24          0.895              1.162              0.566
 Vibration    25          0.906              1.139              0.543
 Vibration    26          0.913              1.124              0.530
 Vibration    27          0.933              1.082              0.492
 Vibration    28          0.961              1.027              0.446
 Vibration    29          0.976              0.997              0.422

                           ! Non-Optimized Parameters !
 Normal termination of Gaussian 16 at Sun Jul 18 18:28:15 2021.

 ----------------------------------------------------------------------
 #p b3lyp/6-31G(d) scrf=(iefpcm,read,solvent=n-octanol) geom=allcheck g
 uess=read
 ----------------------------------------------------------------------

 Structure from the checkpoint file:  "SET_328_BBB321_conf1.geo_180_150_120.chk"
 ---------------------------------------------
 SET_328_BBB321_conf1.geo_180_150_120 geometry
 ---------------------------------------------
 Charge =  1 Multiplicity = 1

 SCF Done:  E(RB3LYP) =  -1212.81930150     A.U. after    1 cycles
 Normal termination of Gaussian 16 at Sun Jul 18 18:29:04 2021.

 -----------------------------
 #p B3LYP/6-31G* geom=allcheck
 -----------------------------

 Structure from the checkpoint file:  "SET_328_BBB321_conf1.geo_180_150_120.chk"
 ---------------------------------------------
 SET_328_BBB321_conf1.geo_180_150_120 geometry
 ---------------------------------------------
 Charge =  1 Multiplicity = 1

 SCF Done:  E(RB3LYP) =  -1212.69403374     A.U. after   16 cycles
 Normal termination of Gaussian 16 at Sun Jul 18 18:31:19 2021.
 Gaussian 16:  ES64L-G16RevA.03 25-Dec-2016

 --------------------------------------------------------
 #p mp2/aug-cc-pVDZ scf=tight maxdisk=180GB geom=allcheck
 --------------------------------------------------------

 Structure from the checkpoint file:  "SET_328_BBB321_conf1.geo_180_150_120.chk"
 ---------------------------------------------
 SET_328_BBB321_conf1.geo_180_150_120 geometry
 ---------------------------------------------
 Charge =  1 Multiplicity = 1

                         Standard orientation:
 ---------------------------------------------------------------------
 Center     Atomic      Atomic             Coordinates (Angstroms)
 Number     Number       Type             X           Y           Z
 ---------------------------------------------------------------------
      1          6           0        6.450831   -1.171369    0.206519
      2          1           0        6.299341   -1.949029   -0.547447
      3          1           0        6.388300   -1.644640    1.191422
      4          1           0        7.443296   -0.740437    0.084257
      5          6           0        5.420440   -0.062529    0.078634
      6          8           0        5.730849    1.120403   -0.007040
      7          7           0        4.119647   -0.515350    0.080119
      8          1           0        3.999586   -1.519058    0.153631
      9          6           0        2.927196    0.224717   -0.009019
     10          6           0        2.899642    1.623777   -0.118446
     11          6           0        1.671200    2.273232   -0.202470
     12          6           0        0.472049    1.566658   -0.181681
     13          1           0       -0.476888    2.081503   -0.256013
     14          1           0        1.653781    3.354562   -0.288572
     15          1           0        3.830336    2.168791   -0.134102
     16          6           0        1.723773   -0.487271    0.016458
     17          1           0        1.748651   -1.567364    0.114124
     18          6           0        0.491942    0.169227   -0.071972
     19          6           0       -0.766657   -0.595017   -0.059700
     20          7           0       -1.975883    0.086947   -0.008756
     21          6           0       -0.889914   -1.955971   -0.107439
     22          1           0       -0.113590   -2.702191   -0.168989
     23         16           0       -2.559111   -2.435331   -0.085832
     24          6           0       -2.984809   -0.732145   -0.018351
     25          7           0       -4.317819   -0.349928    0.023237
     26          6           0       -4.796115    0.928627    0.109463
     27          7           0       -6.115289    1.091175    0.122141
     28          1           0       -6.743339    0.295990    0.084140
     29          1           0       -6.515372    2.019617    0.193880
     30          7           0       -3.968698    1.958204    0.179215
     31          1           0       -4.335639    2.900697    0.249821
     32          1           0       -2.964281    1.791213    0.158436
     33          1           0       -5.026383   -1.076540   -0.028639
 ---------------------------------------------------------------------

 SCF Done:  E(RHF) =  -1207.15578680     A.U. after   18 cycles
 E2 =    -0.2815665467D+01 EUMP2 =    -0.12099714522708D+04

 The electronic state is 1-A.
 Alpha  occ. eigenvalues --  -92.13558 -20.60843 -15.81618 -15.80115 -15.78670
 Alpha  occ. eigenvalues --  -15.72079 -15.68882 -11.60745 -11.51529 -11.44085
 Alpha  occ. eigenvalues --  -11.41358 -11.39175 -11.38304 -11.35540 -11.33649
 Alpha  occ. eigenvalues --  -11.33130 -11.33009 -11.31843 -11.31287  -9.13717
 Alpha  occ. eigenvalues --   -6.81880  -6.81774  -6.81579  -1.55205  -1.46048
 Alpha  occ. eigenvalues --   -1.45522  -1.39594  -1.38872  -1.33859  -1.24605
 Alpha  occ. eigenvalues --   -1.20497  -1.16924  -1.11763  -1.10839  -1.06370
 Alpha  occ. eigenvalues --   -1.05325  -0.99619  -0.98821  -0.95305  -0.93750
 Alpha  occ. eigenvalues --   -0.91151  -0.89116  -0.86615  -0.85740  -0.84330
 Alpha  occ. eigenvalues --   -0.82919  -0.81960  -0.81074  -0.76741  -0.75325
 Alpha  occ. eigenvalues --   -0.72341  -0.72288  -0.70902  -0.70062  -0.69491
 Alpha  occ. eigenvalues --   -0.68299  -0.66043  -0.64297  -0.64033  -0.63207
 Alpha  occ. eigenvalues --   -0.62384  -0.61470  -0.61386  -0.59012  -0.58266
 Alpha  occ. eigenvalues --   -0.57994  -0.53343  -0.52050  -0.49644  -0.47609
 Alpha  occ. eigenvalues --   -0.40952  -0.38958
 Alpha virt. eigenvalues --   -0.09148  -0.07080  -0.05419  -0.04878  -0.04434
 Alpha virt. eigenvalues --   -0.03650  -0.03377  -0.02837  -0.02311  -0.01860
 Alpha virt. eigenvalues --   -0.01423  -0.00328  -0.00196   0.00075   0.00610

 Mulliken charges:
               1
     1  C    0.383601
     2  H    0.025788
     3  H    0.067808
     4  H   -0.079454
     5  C    0.655852
     6  O   -0.817872
     7  N   -0.704626
     8  H   -0.049376
     9  C   -0.413026
    10  C    1.166841
    11  C   -0.152094
    12  C    0.792007
    13  H   -0.604676
    14  H   -0.545399
    15  H   -0.634540
    16  C    1.091482
    17  H   -0.762894
    18  C    1.693242
    19  C   -0.721205
    20  N   -0.692820
    21  C    0.499916
    22  H   -0.595617
    23  S    0.498608
    24  C    0.557237
    25  N   -0.729758
    26  C    1.335625
    27  N   -0.262772
    28  H   -0.000511
    29  H    0.027340
    30  N   -0.139636
    31  H    0.007451
    32  H    0.116807
    33  H   -0.013330
 Sum of Mulliken charges =   1.00000

 Dipole moment (field-independent basis, Debye):
    X=            -19.9664    Y=             -0.9215    Z=              0.6800  Tot=             19.9992
 Quadrupole moment (field-independent basis, Debye-Ang):
   XX=             15.7197   YY=            -87.7820   ZZ=           -124.3173
   XY=            -40.6773   XZ=             -0.8849   YZ=              0.8254

 Normal termination of Gaussian 16 at Sun Jul 18 19:32:43 2021.
