 Gaussian 16, Revision A.03,

 ---------------------------------------------------------------
 #p b3lyp/6-31G(d) opt freq scrf=(iefpcm,read,solvent=n-octanol)
 ---------------------------------------------------------------

 ---------------------------------------------
 SET_328_BBB321_conf1.geo_165_030_120 geometry
 ---------------------------------------------
 Symbolic Z-matrix:
 Charge =  1 Multiplicity = 1

 SCF Done:  E(RB3LYP) =  -1212.51378780     A.U. after   15 cycles
 SCF Done:  E(RB3LYP) =  -1212.65129522     A.U. after   13 cycles
 SCF Done:  E(RB3LYP) =  -1212.72311669     A.U. after   13 cycles
 SCF Done:  E(RB3LYP) =  -1212.76112991     A.U. after   12 cycles
 SCF Done:  E(RB3LYP) =  -1212.78545895     A.U. after   12 cycles
 SCF Done:  E(RB3LYP) =  -1212.79565142     A.U. after   11 cycles
 SCF Done:  E(RB3LYP) =  -1212.80413176     A.U. after   12 cycles
 SCF Done:  E(RB3LYP) =  -1212.80782253     A.U. after   14 cycles
 SCF Done:  E(RB3LYP) =  -1212.81267844     A.U. after   11 cycles
 SCF Done:  E(RB3LYP) =  -1212.81633894     A.U. after   11 cycles
 SCF Done:  E(RB3LYP) =  -1212.81900232     A.U. after    8 cycles
 SCF Done:  E(RB3LYP) =  -1212.81900238     A.U. after    6 cycles
 SCF Done:  E(RB3LYP) =  -1212.81900299     A.U. after    8 cycles
 SCF Done:  E(RB3LYP) =  -1212.81900233     A.U. after    8 cycles
 SCF Done:  E(RB3LYP) =  -1212.81900295     A.U. after    8 cycles
 SCF Done:  E(RB3LYP) =  -1212.81900237     A.U. after    8 cycles
 Optimization completed.
    -- Stationary point found.
 Normal termination of Gaussian 16 at Sun Jul 18 18:05:23 2021.

 --------------------------------------------------------------------
 #P Geom=AllCheck Guess=TCheck SCRF=Check GenChk RB3LYP/6-31G(d) Freq
 --------------------------------------------------------------------

 Structure from the checkpoint file:  "SET_328_BBB321_conf1.geo_165_030_120.chk"
 ---------------------------------------------
 SET_328_BBB321_conf1.geo_165_030_120 geometry
 ---------------------------------------------
 Charge =  1 Multiplicity = 1

 SCF Done:  E(RB3LYP) =  -1212.81900237     A.U. after    1 cycles

  Exact polarizability: 333.660   7.942 279.103   0.151  -0.066  80.993
 Approx polarizability: 392.641  14.572 348.283   0.239  -0.118 108.656

 ******    1 imaginary frequencies (negative Signs) ******

                      1                      2                      3
                      A                      A                      A
 Frequencies --     -6.9581                26.3849                57.9444
 Red. masses --      3.8129                 3.5119                 1.6991
 Frc consts  --      0.0001                 0.0014                 0.0034
 IR Inten    --      1.4937                 0.5180                 4.6703

                      4                      5                      6
                      A                      A                      A
 Frequencies --     77.4640                79.9423                92.5364
 Red. masses --      5.1536                 3.4909                 3.6528
 Frc consts  --      0.0182                 0.0131                 0.0184
 IR Inten    --      3.5947                23.7350                 0.2404

                      7                      8                      9
                      A                      A                      A
 Frequencies --     98.4908               118.8656               144.2988
 Red. masses --      2.8825                 4.0988                 5.0408
 Frc consts  --      0.0165                 0.0341                 0.0618
 IR Inten    --      0.0230                 5.1041                11.1671

                     10                     11                     12
                      A                      A                      A
 Frequencies --    176.1423               213.6789               246.8375
 Red. masses --      1.5048                 6.4577                 3.9072
 Frc consts  --      0.0275                 0.1737                 0.1403
 IR Inten    --    187.0986                12.1361                 0.0005

                     13                     14                     15
                      A                      A                      A
 Frequencies --    256.7122               264.2323               279.1979
 Red. masses --      5.5085                 6.6814                 5.2640
 Frc consts  --      0.2139                 0.2748                 0.2418
 IR Inten    --      5.7760                 1.1857                 0.0246

                     16                     17                     18
                      A                      A                      A
 Frequencies --    327.9656               339.4437               347.0315
 Red. masses --      5.8332                 5.4926                 3.9096
 Frc consts  --      0.3697                 0.3729                 0.2774
 IR Inten    --     17.2507                 6.5717                 0.1507

                     19                     20                     21
                      A                      A                      A
 Frequencies --    387.8572               411.3306               418.5866
 Red. masses --      1.2250                 6.0429                 1.0652
 Frc consts  --      0.1086                 0.6024                 0.1100
 IR Inten    --    366.8119                 1.5595               171.5820

                     22                     23                     24
                      A                      A                      A
 Frequencies --    452.5537               496.8560               527.2009
 Red. masses --      3.2440                 5.2201                 2.1847
 Frc consts  --      0.3914                 0.7593                 0.3578
 IR Inten    --     10.5829                 5.5570                22.7116

                     25                     26                     27
                      A                      A                      A
 Frequencies --    537.7826               543.6070               547.2304
 Red. masses --      1.4667                 4.0578                 2.5693
 Frc consts  --      0.2499                 0.7065                 0.4533
 IR Inten    --    193.9677                28.5515                 0.9261

                     28                     29                     30
                      A                      A                      A
 Frequencies --    576.0639               598.8856               617.3429
 Red. masses --      2.0871                 2.2857                 2.1330
 Frc consts  --      0.4081                 0.4830                 0.4790
 IR Inten    --     24.9079                12.6521                10.7808

                     31                     32                     33
                      A                      A                      A
 Frequencies --    622.9753               660.0870               665.1268
 Red. masses --      9.5471                 1.1014                 6.4858
 Frc consts  --      2.1830                 0.2827                 1.6905
 IR Inten    --      0.3228                 2.5885                 6.1342

                     34                     35                     36
                      A                      A                      A
 Frequencies --    695.6982               697.9383               707.0905
 Red. masses --      3.4120                 1.9828                 3.9292
 Frc consts  --      0.9730                 0.5691                 1.1574
 IR Inten    --      0.2623                 4.4788                 4.8223

                     37                     38                     39
                      A                      A                      A
 Frequencies --    710.7563               751.2471               812.4203
 Red. masses --      6.3401                 1.8698                 1.4965
 Frc consts  --      1.8871                 0.6217                 0.5819
 IR Inten    --      9.3718                73.9932                21.9466

                     40                     41                     42
                      A                      A                      A
 Frequencies --    825.5475               869.5557               885.3581
 Red. masses --      6.4349                 6.0593                 4.2973
 Frc consts  --      2.5839                 2.6994                 1.9847
 IR Inten    --     31.4616                21.8805                 6.1989

                     43                     44                     45
                      A                      A                      A
 Frequencies --    892.4331               916.4259               951.9099
 Red. masses --      1.6748                 1.3733                 5.3239
 Frc consts  --      0.7859                 0.6795                 2.8423
 IR Inten    --     28.4764                 0.5615                 0.5573

                     46                     47                     48
                      A                      A                      A
 Frequencies --    992.6790               997.2633              1009.9277
 Red. masses --      1.2759                 2.6296                 4.7618
 Frc consts  --      0.7408                 1.5409                 2.8615
 IR Inten    --      1.7252                35.3393                17.8049

                     49                     50                     51
                      A                      A                      A
 Frequencies --   1017.6998              1039.7316              1061.2187
 Red. masses --      6.0267                 2.3176                 1.7051
 Frc consts  --      3.6776                 1.4762                 1.1314
 IR Inten    --      0.0222                13.2172                 6.9735

                     52                     53                     54
                      A                      A                      A
 Frequencies --   1084.9295              1112.6206              1125.1565
 Red. masses --      1.4360                 1.9250                 1.6330
 Frc consts  --      0.9959                 1.4040                 1.2181
 IR Inten    --      1.1387                20.6758                16.8236

                     55                     56                     57
                      A                      A                      A
 Frequencies --   1156.7753              1206.0063              1236.4122
 Red. masses --      1.7188                 1.1931                 1.6980
 Frc consts  --      1.3551                 1.0224                 1.5294
 IR Inten    --     22.4931                 1.7467                56.0429

                     58                     59                     60
                      A                      A                      A
 Frequencies --   1252.9714              1273.2228              1292.1228
 Red. masses --      2.7856                 2.6363                 2.3681
 Frc consts  --      2.5766                 2.5180                 2.3295
 IR Inten    --    197.9463               128.4067                61.0847

                     61                     62                     63
                      A                      A                      A
 Frequencies --   1353.1177              1363.3654              1384.0564
 Red. masses --      3.7312                 2.5754                 2.4212
 Frc consts  --      4.0250                 2.8205                 2.7327
 IR Inten    --    155.6257                77.7125                14.3428

                     64                     65                     66
                      A                      A                      A
 Frequencies --   1413.0225              1445.6281              1496.6611
 Red. masses --      1.3164                 2.7737                 1.0797
 Frc consts  --      1.5486                 3.4153                 1.4250
 IR Inten    --     35.8791               177.6398                24.9971

                     67                     68                     69
                      A                      A                      A
 Frequencies --   1504.1187              1510.1253              1540.8494
 Red. masses --      1.0454                 1.7332                 2.4085
 Frc consts  --      1.3935                 2.3288                 3.3691
 IR Inten    --     10.7921                49.0333               310.0172

                     70                     71                     72
                      A                      A                      A
 Frequencies --   1551.0219              1560.6491              1590.7153
 Red. masses --      2.5728                 3.9901                 2.5083
 Frc consts  --      3.6466                 5.7260                 3.7396
 IR Inten    --    501.6279                84.5155               283.7627

                     73                     74                     75
                      A                      A                      A
 Frequencies --   1605.5878              1625.2030              1650.4019
 Red. masses --      2.5679                 1.4401                 3.2778
 Frc consts  --      3.9002                 2.2411                 5.2603
 IR Inten    --     30.5845               235.1112               274.0205

                     76                     77                     78
                      A                      A                      A
 Frequencies --   1660.5248              1669.8043              1725.0205
 Red. masses --      2.0518                 4.7326                 3.4696
 Frc consts  --      3.3333                 7.7746                 6.0830
 IR Inten    --    797.8700               115.2612               883.1372

                     79                     80                     81
                      A                      A                      A
 Frequencies --   1777.4805              3084.5245              3148.5508
 Red. masses --      7.7401                 1.0386                 1.1003
 Frc consts  --     14.4082                 5.8222                 6.4264
 IR Inten    --    314.6234                 5.2700                10.3796

                     82                     83                     84
                      A                      A                      A
 Frequencies --   3198.9943              3209.1444              3228.2628
 Red. masses --      1.1018                 1.0878                 1.0936
 Frc consts  --      6.6434                 6.6003                 6.7148
 IR Inten    --     10.3254                16.8407                24.0060

                     85                     86                     87
                      A                      A                      A
 Frequencies --   3251.0132              3290.9302              3307.6226
 Red. masses --      1.0873                 1.0919                 1.0942
 Frc consts  --      6.7706                 6.9672                 7.0528
 IR Inten    --      7.0829                 9.0390                 6.8911

                     88                     89                     90
                      A                      A                      A
 Frequencies --   3491.8947              3564.2101              3583.6837
 Red. masses --      1.0524                 1.0478                 1.0775
 Frc consts  --      7.5604                 7.8426                 8.1533
 IR Inten    --    411.1359               266.8431               249.0098

                     91                     92                     93
                      A                      A                      A
 Frequencies --   3613.6677              3641.6896              3676.6850
 Red. masses --      1.0772                 1.1014                 1.1088
 Frc consts  --      8.2881                 8.6062                 8.8313
 IR Inten    --     50.7163               430.1753               214.2396

 - Thermochemistry -
 -------------------
 Temperature   298.150 Kelvin.  Pressure   1.00000 Atm.
 Atom     1 has atomic number  6 and mass  12.00000

 Molecular mass:   276.09191 amu.
 Principal axes and moments of inertia in atomic units:
                           1         2         3
     Eigenvalues --  3372.28450********************
           X            1.00000  -0.00301  -0.00002
           Y            0.00301   1.00000  -0.00005
           Z            0.00002   0.00005   1.00000
 This molecule is an asymmetric top.
 Rotational symmetry number  1.
 Warning -- assumption of classical behavior for rotation
           may cause significant error
 Rotational temperatures (Kelvin)      0.02568     0.00800     0.00611
 Rotational constants (GHZ):           0.53517     0.16673     0.12723
    1 imaginary frequencies ignored.
 Zero-point vibrational energy     684886.0 (Joules/Mol)
                                  163.69169 (Kcal/Mol)
 Warning -- explicit consideration of  29 degrees of freedom as
           vibrations may cause significant error
 Vibrational temperatures:     37.96    83.37   111.45   115.02   133.14
          (Kelvin)            141.71   171.02   207.61   253.43   307.44
                              355.14   369.35   380.17   401.70   471.87
                              488.38   499.30   558.04   591.81   602.25
                              651.12   714.86   758.52   773.75   782.13
                              787.34   828.83   861.66   888.22   896.32
                              949.72   956.97  1000.95  1004.18  1017.35
                             1022.62  1080.88  1168.89  1187.78  1251.10
                             1273.83  1284.01  1318.53  1369.59  1428.24
                             1434.84  1453.06  1464.24  1495.94  1526.86
                             1560.97  1600.81  1618.85  1664.34  1735.17
                             1778.92  1802.75  1831.88  1859.08  1946.83
                             1961.58  1991.35  2033.02  2079.94  2153.36
                             2164.09  2172.73  2216.94  2231.57  2245.43
                             2288.68  2310.08  2338.30  2374.56  2389.12
                             2402.48  2481.92  2557.40  4437.94  4530.06
                             4602.64  4617.24  4644.75  4677.48  4734.91
                             4758.93  5024.06  5128.10  5156.12  5199.26
                             5239.58  5289.93

 Zero-point correction=                           0.260859 (Hartree/Particle)
 Thermal correction to Energy=                    0.278415
 Thermal correction to Enthalpy=                  0.279359
 Thermal correction to Gibbs Free Energy=         0.214686
 Sum of electronic and zero-point Energies=          -1212.558143
 Sum of electronic and thermal Energies=             -1212.540587
 Sum of electronic and thermal Enthalpies=           -1212.539643
 Sum of electronic and thermal Free Energies=        -1212.604316

                     E (Thermal)             CV                S
                      KCal/Mol        Cal/Mol-Kelvin    Cal/Mol-Kelvin
 Total                  174.708             67.715            136.116
 Electronic               0.000              0.000              0.000
 Translational            0.889              2.981             42.745
 Rotational               0.889              2.981             34.603
 Vibrational            172.931             61.754             58.768
 Vibration     1          0.593              1.985              6.084
 Vibration     2          0.596              1.974              4.526
 Vibration     3          0.599              1.964              3.954
 Vibration     4          0.600              1.963              3.892
 Vibration     5          0.602              1.955              3.606
 Vibration     6          0.604              1.950              3.484
 Vibration     7          0.609              1.934              3.119
 Vibration     8          0.616              1.909              2.746
 Vibration     9          0.628              1.872              2.369
 Vibration    10          0.644              1.820              2.012
 Vibration    11          0.661              1.768              1.753
 Vibration    12          0.666              1.751              1.684
 Vibration    13          0.671              1.739              1.634
 Vibration    14          0.680              1.712              1.539
 Vibration    15          0.711              1.620              1.270
 Vibration    16          0.719              1.597              1.215
 Vibration    17          0.725              1.581              1.180
 Vibration    18          0.756              1.496              1.008
 Vibration    19          0.775              1.446              0.922
 Vibration    20          0.781              1.430              0.897
 Vibration    21          0.811              1.355              0.788
 Vibration    22          0.852              1.257              0.666
 Vibration    23          0.882              1.190              0.593
 Vibration    24          0.893              1.166              0.570
 Vibration    25          0.899              1.154              0.558
 Vibration    26          0.902              1.146              0.550
 Vibration    27          0.932              1.083              0.493
 Vibration    28          0.957              1.034              0.452
 Vibration    29          0.977              0.995              0.421

                           ! Non-Optimized Parameters !
 Normal termination of Gaussian 16 at Sun Jul 18 18:35:03 2021.

 ----------------------------------------------------------------------
 #p b3lyp/6-31G(d) scrf=(iefpcm,read,solvent=n-octanol) geom=allcheck g
 uess=read
 ----------------------------------------------------------------------

 Structure from the checkpoint file:  "SET_328_BBB321_conf1.geo_165_030_120.chk"
 ---------------------------------------------
 SET_328_BBB321_conf1.geo_165_030_120 geometry
 ---------------------------------------------
 Charge =  1 Multiplicity = 1

 SCF Done:  E(RB3LYP) =  -1212.81900237     A.U. after    1 cycles
 Normal termination of Gaussian 16 at Sun Jul 18 18:35:45 2021.

 -----------------------------
 #p B3LYP/6-31G* geom=allcheck
 -----------------------------

 Structure from the checkpoint file:  "SET_328_BBB321_conf1.geo_165_030_120.chk"
 ---------------------------------------------
 SET_328_BBB321_conf1.geo_165_030_120 geometry
 ---------------------------------------------
 Charge =  1 Multiplicity = 1

 SCF Done:  E(RB3LYP) =  -1212.69159916     A.U. after   17 cycles
 Normal termination of Gaussian 16 at Sun Jul 18 18:38:01 2021.
 Gaussian 16:  ES64L-G16RevA.03 25-Dec-2016

 --------------------------------------------------------
 #p mp2/aug-cc-pVDZ scf=tight maxdisk=180GB geom=allcheck
 --------------------------------------------------------

 Structure from the checkpoint file:  "SET_328_BBB321_conf1.geo_165_030_120.chk"
 ---------------------------------------------
 SET_328_BBB321_conf1.geo_165_030_120 geometry
 ---------------------------------------------
 Charge =  1 Multiplicity = 1

                         Standard orientation:
 ---------------------------------------------------------------------
 Center     Atomic      Atomic             Coordinates (Angstroms)
 Number     Number       Type             X           Y           Z
 ---------------------------------------------------------------------
      1          6           0        4.958692    2.783802   -0.003187
      2          1           0        6.041164    2.898226   -0.014069
      3          1           0        4.554881    3.278025    0.885614
      4          1           0        4.537066    3.279669   -0.881209
      5          6           0        4.627126    1.302612   -0.001241
      6          8           0        5.490444    0.432774    0.004091
      7          7           0        3.276116    1.038753   -0.005101
      8          1           0        2.665754    1.845147   -0.009103
      9          6           0        2.620842   -0.206290   -0.001760
     10          6           0        3.298608   -1.433260    0.001945
     11          6           0        2.555673   -2.614147    0.004913
     12          6           0        1.165527   -2.600804    0.004240
     13          1           0        0.616894   -3.535751    0.007042
     14          1           0        3.080098   -3.563820    0.007914
     15          1           0        4.377640   -1.440711    0.002661
     16          6           0        1.220852   -0.189933   -0.002517
     17          1           0        0.698010    0.758163   -0.005404
     18          6           0        0.480449   -1.374264    0.000378
     19          6           0       -0.992171   -1.322869   -0.000638
     20          7           0       -1.639371   -0.091746    0.000647
     21          6           0       -1.834755   -2.400265   -0.002931
     22          1           0       -1.589678   -3.450805   -0.004829
     23         16           0       -3.496099   -1.898186   -0.003274
     24          6           0       -2.931543   -0.236237   -0.000506
     25          7           0       -3.851442    0.801947    0.000409
     26          6           0       -3.574323    2.140264    0.002183
     27          7           0       -4.604084    2.979711    0.002492
     28          1           0       -5.559522    2.641737    0.000280
     29          1           0       -4.446096    3.981208    0.003066
     30          7           0       -2.323802    2.571997    0.003626
     31          1           0       -1.566299    1.892347    0.004073
     32          1           0       -2.129495    3.567041    0.005136
     33          1           0       -4.838155    0.562021   -0.001313
 ---------------------------------------------------------------------

 SCF Done:  E(RHF) =  -1207.15337393     A.U. after   18 cycles
 E2 =    -0.2816075870D+01 EUMP2 =    -0.12099694497968D+04

 The electronic state is 1-A.
 Alpha  occ. eigenvalues --  -92.13632 -20.61281 -15.81876 -15.80471 -15.79164
 Alpha  occ. eigenvalues --  -15.72318 -15.69346 -11.61110 -11.51654 -11.44530
 Alpha  occ. eigenvalues --  -11.41405 -11.39202 -11.38355 -11.35639 -11.33822
 Alpha  occ. eigenvalues --  -11.33051 -11.32920 -11.31999 -11.31865  -9.13798
 Alpha  occ. eigenvalues --   -6.81961  -6.81852  -6.81660  -1.55586  -1.46515
 Alpha  occ. eigenvalues --   -1.45751  -1.39996  -1.39156  -1.34283  -1.24654
 Alpha  occ. eigenvalues --   -1.20610  -1.17025  -1.11942  -1.11060  -1.06971
 Alpha  occ. eigenvalues --   -1.05474  -0.99855  -0.99177  -0.95728  -0.93229
 Alpha  occ. eigenvalues --   -0.91855  -0.89361  -0.87055  -0.86184  -0.84595
 Alpha  occ. eigenvalues --   -0.83582  -0.82325  -0.80019  -0.77042  -0.76384
 Alpha  occ. eigenvalues --   -0.72542  -0.72335  -0.70963  -0.70092  -0.69816
 Alpha  occ. eigenvalues --   -0.68805  -0.66454  -0.64428  -0.64140  -0.63646
 Alpha  occ. eigenvalues --   -0.62814  -0.61886  -0.60895  -0.59761  -0.58535
 Alpha  occ. eigenvalues --   -0.58094  -0.53441  -0.52448  -0.50087  -0.47464
 Alpha  occ. eigenvalues --   -0.41366  -0.38778
 Alpha virt. eigenvalues --   -0.09484  -0.07582  -0.06017  -0.05039  -0.04117
 Alpha virt. eigenvalues --   -0.03972  -0.03720  -0.03152  -0.02036  -0.01922
 Alpha virt. eigenvalues --   -0.01509  -0.01060  -0.00881   0.00158   0.00322

 Mulliken charges:
               1
     1  C    0.401543
     2  H   -0.086644
     3  H    0.050252
     4  H    0.042290
     5  C    0.681169
     6  O   -0.813901
     7  N   -0.706497
     8  H   -0.064756
     9  C   -0.652487
    10  C    1.289497
    11  C   -0.139370
    12  C    0.892018
    13  H   -0.658974
    14  H   -0.535632
    15  H   -0.637844
    16  C    1.124671
    17  H   -0.765025
    18  C    1.712327
    19  C   -0.793307
    20  N   -0.693888
    21  C    0.589695
    22  H   -0.582879
    23  S    0.456898
    24  C    0.527245
    25  N   -0.705503
    26  C    1.313380
    27  N   -0.258874
    28  H   -0.004142
    29  H    0.027664
    30  N   -0.100800
    31  H    0.096823
    32  H    0.006236
    33  H   -0.011186
 Sum of Mulliken charges =   1.00000

 Dipole moment (field-independent basis, Debye):
    X=            -17.4733    Y=             10.1912    Z=             -0.0093  Tot=             20.2281
 Quadrupole moment (field-independent basis, Debye-Ang):
   XX=            -48.5756   YY=            -56.2502   ZZ=           -124.6200
   XY=            -24.6794   XZ=             -0.0588   YZ=              0.0016

 Normal termination of Gaussian 16 at Sun Jul 18 19:44:27 2021.
