 Gaussian 16, Revision A.03,

 ---------------------------------------------------------------
 #p b3lyp/6-31G(d) opt freq scrf=(iefpcm,read,solvent=n-octanol)
 ---------------------------------------------------------------

 ---------------------------------------------
 SET_328_BBB321_conf1.geo_165_150_225 geometry
 ---------------------------------------------
 Symbolic Z-matrix:
 Charge =  1 Multiplicity = 1

 SCF Done:  E(RB3LYP) =  -1212.58481505     A.U. after   14 cycles
 SCF Done:  E(RB3LYP) =  -1212.69335569     A.U. after   12 cycles
 SCF Done:  E(RB3LYP) =  -1212.74399040     A.U. after   12 cycles
 SCF Done:  E(RB3LYP) =  -1212.78125321     A.U. after   12 cycles
 SCF Done:  E(RB3LYP) =  -1212.80261152     A.U. after   12 cycles
 SCF Done:  E(RB3LYP) =  -1212.81195771     A.U. after   11 cycles
 SCF Done:  E(RB3LYP) =  -1212.81659307     A.U. after   14 cycles
 SCF Done:  E(RB3LYP) =  -1212.81836439     A.U. after   12 cycles
 SCF Done:  E(RB3LYP) =  -1212.81887044     A.U. after   11 cycles
 SCF Done:  E(RB3LYP) =  -1212.81884421     A.U. after   12 cycles
 SCF Done:  E(RB3LYP) =  -1212.81932603     A.U. after    7 cycles
 SCF Done:  E(RB3LYP) =  -1212.81932630     A.U. after    7 cycles
 SCF Done:  E(RB3LYP) =  -1212.81932668     A.U. after    6 cycles
 SCF Done:  E(RB3LYP) =  -1212.81933253     A.U. after    9 cycles
 SCF Done:  E(RB3LYP) =  -1212.81933250     A.U. after    6 cycles
 SCF Done:  E(RB3LYP) =  -1212.81933253     A.U. after    6 cycles
 Optimization completed.
    -- Stationary point found.
 Normal termination of Gaussian 16 at Sun Jul 18 18:42:01 2021.

 --------------------------------------------------------------------
 #P Geom=AllCheck Guess=TCheck SCRF=Check GenChk RB3LYP/6-31G(d) Freq
 --------------------------------------------------------------------

 Structure from the checkpoint file:  "SET_328_BBB321_conf1.geo_165_150_225.chk"
 ---------------------------------------------
 SET_328_BBB321_conf1.geo_165_150_225 geometry
 ---------------------------------------------
 Charge =  1 Multiplicity = 1

 SCF Done:  E(RB3LYP) =  -1212.81933253     A.U. after    1 cycles

  Exact polarizability: 357.995   5.239 257.598   0.980  -2.243  81.988
 Approx polarizability: 386.385  18.404 355.290   1.298  -3.909 109.869

                      1                      2                      3
                      A                      A                      A
 Frequencies --     16.6441                34.5396                40.9838
 Red. masses --      1.3966                 3.6979                 4.5599
 Frc consts  --      0.0002                 0.0026                 0.0045
 IR Inten    --      1.2695                 9.9949                 4.5618

                      4                      5                      6
                      A                      A                      A
 Frequencies --     76.3595                80.4636                91.4841
 Red. masses --      5.2414                 5.6863                 4.6172
 Frc consts  --      0.0180                 0.0217                 0.0228
 IR Inten    --      8.9769                 4.9842                 0.3097

                      7                      8                      9
                      A                      A                      A
 Frequencies --     94.5838               119.1906               133.5616
 Red. masses --      3.4097                 6.4051                 5.1344
 Frc consts  --      0.0180                 0.0536                 0.0540
 IR Inten    --      2.6060                 0.3234                 1.4843

                     10                     11                     12
                      A                      A                      A
 Frequencies --    202.6482               213.1620               253.5486
 Red. masses --      6.8413                 1.2033                 5.1134
 Frc consts  --      0.1655                 0.0322                 0.1937
 IR Inten    --     17.4840               289.9943                12.5225

                     13                     14                     15
                      A                      A                      A
 Frequencies --    262.4283               265.6707               279.4978
 Red. masses --      5.2907                 4.1202                 4.6531
 Frc consts  --      0.2147                 0.1713                 0.2142
 IR Inten    --      3.5270                 0.7626                 6.3350

                     16                     17                     18
                      A                      A                      A
 Frequencies --    332.8716               351.6994               361.8862
 Red. masses --      6.9623                 4.6906                 6.0418
 Frc consts  --      0.4545                 0.3418                 0.4662
 IR Inten    --     23.5965                 1.6683                 0.8127

                     19                     20                     21
                      A                      A                      A
 Frequencies --    387.3892               387.4978               454.2104
 Red. masses --      2.3213                 1.5376                 2.8547
 Frc consts  --      0.2052                 0.1360                 0.3470
 IR Inten    --      0.5518                 7.0208                53.5065

                     22                     23                     24
                      A                      A                      A
 Frequencies --    458.8148               493.4989               524.2171
 Red. masses --      1.1752                 5.0025                 2.1599
 Frc consts  --      0.1458                 0.7178                 0.3497
 IR Inten    --    383.7583                 4.7257                47.5320

                     25                     26                     27
                      A                      A                      A
 Frequencies --    537.4960               548.6963               550.7611
 Red. masses --      3.9548                 1.6001                 2.2781
 Frc consts  --      0.6732                 0.2838                 0.4072
 IR Inten    --     39.5950               144.0233                23.4266

                     28                     29                     30
                      A                      A                      A
 Frequencies --    577.1100               603.1457               616.7184
 Red. masses --      1.9110                 2.9589                 7.6186
 Frc consts  --      0.3750                 0.6342                 1.7073
 IR Inten    --     15.7854                16.9306                 2.9102

                     31                     32                     33
                      A                      A                      A
 Frequencies --    630.9527               666.7112               694.3405
 Red. masses --      2.0718                 6.3565                 3.2185
 Frc consts  --      0.4860                 1.6647                 0.9142
 IR Inten    --     10.4263                 4.7066                17.2240

                     34                     35                     36
                      A                      A                      A
 Frequencies --    697.1685               703.3376               711.9008
 Red. masses --      3.4576                 1.6497                 6.2195
 Frc consts  --      0.9901                 0.4808                 1.8571
 IR Inten    --      0.6775                 5.6526                 6.7108

                     37                     38                     39
                      A                      A                      A
 Frequencies --    730.8765               746.8457               826.6611
 Red. masses --      1.3296                 1.9687                 5.2310
 Frc consts  --      0.4185                 0.6470                 2.1062
 IR Inten    --     20.7858                56.2026                37.0249

                     40                     41                     42
                      A                      A                      A
 Frequencies --    828.4410               864.0257               876.1313
 Red. masses --      1.4630                 5.8911                 1.8461
 Frc consts  --      0.5916                 2.5912                 0.8349
 IR Inten    --     16.2834                 9.8166                30.3227

                     43                     44                     45
                      A                      A                      A
 Frequencies --    884.7196               938.2093               951.7194
 Red. masses --      4.1315                 1.3474                 5.2575
 Frc consts  --      1.9053                 0.6988                 2.8058
 IR Inten    --     21.4675                 0.8856                 2.3747

                     46                     47                     48
                      A                      A                      A
 Frequencies --   1001.9737              1005.4576              1011.4264
 Red. masses --      1.2705                 4.4970                 4.5842
 Frc consts  --      0.7515                 2.6785                 2.7630
 IR Inten    --      2.0648                 4.5027                11.1333

                     49                     50                     51
                      A                      A                      A
 Frequencies --   1018.6935              1039.5999              1067.8203
 Red. masses --      4.5619                 1.7401                 1.6786
 Frc consts  --      2.7892                 1.1081                 1.1277
 IR Inten    --      2.5639                30.0410                13.5722

                     52                     53                     54
                      A                      A                      A
 Frequencies --   1085.8592              1102.2794              1129.0068
 Red. masses --      1.4008                 1.8234                 1.6311
 Frc consts  --      0.9731                 1.3053                 1.2250
 IR Inten    --      5.7396                21.7182                15.4404

                     55                     56                     57
                      A                      A                      A
 Frequencies --   1155.3202              1214.6037              1224.9476
 Red. masses --      1.5801                 1.1678                 2.0340
 Frc consts  --      1.2426                 1.0151                 1.7982
 IR Inten    --     18.5585                 0.5256                88.0161

                     58                     59                     60
                      A                      A                      A
 Frequencies --   1238.5407              1267.1885              1291.9294
 Red. masses --      2.0112                 2.9082                 2.3376
 Frc consts  --      1.8178                 2.7514                 2.2987
 IR Inten    --    128.9170               118.3330                66.2770

                     61                     62                     63
                      A                      A                      A
 Frequencies --   1337.6142              1354.1571              1375.3831
 Red. masses --      2.6379                 2.5545                 3.7075
 Frc consts  --      2.7808                 2.7599                 4.1322
 IR Inten    --     14.4339               245.8651                90.9011

                     64                     65                     66
                      A                      A                      A
 Frequencies --   1428.2808              1463.6543              1486.6899
 Red. masses --      1.2424                 2.7374                 1.8005
 Frc consts  --      1.4933                 3.4552                 2.3447
 IR Inten    --     38.1419                38.2495                16.0203

                     67                     68                     69
                      A                      A                      A
 Frequencies --   1497.8630              1512.9463              1521.6335
 Red. masses --      1.0515                 1.1249                 2.6135
 Frc consts  --      1.3900                 1.5171                 3.5653
 IR Inten    --     10.3829                22.0746               402.3096

                     70                     71                     72
                      A                      A                      A
 Frequencies --   1547.0243              1565.9079              1592.9663
 Red. masses --      2.1927                 3.6084                 2.4862
 Frc consts  --      3.0919                 5.2132                 3.7171
 IR Inten    --    335.9916               288.5019               368.4231

                     73                     74                     75
                      A                      A                      A
 Frequencies --   1600.3265              1617.3602              1647.5811
 Red. masses --      3.6625                 1.4198                 4.3443
 Frc consts  --      5.5264                 2.1883                 6.9481
 IR Inten    --     67.5655               299.0974                53.3267

                     76                     77                     78
                      A                      A                      A
 Frequencies --   1656.0412              1667.4863              1718.4997
 Red. masses --      1.6536                 5.6191                 4.1889
 Frc consts  --      2.6720                 9.2054                 7.2886
 IR Inten    --    827.3812               154.3646               882.8635

                     79                     80                     81
                      A                      A                      A
 Frequencies --   1771.0181              3087.2885              3156.5782
 Red. masses --      7.9543                 1.0365                 1.1002
 Frc consts  --     14.6994                 5.8207                 6.4590
 IR Inten    --    330.7461                 6.9691                 9.0660

                     82                     83                     84
                      A                      A                      A
 Frequencies --   3176.1413              3210.0602              3211.7398
 Red. masses --      1.1050                 1.0895                 1.0896
 Frc consts  --      6.5674                 6.6146                 6.6220
 IR Inten    --     19.4168                34.9948                 5.3834

                     85                     86                     87
                      A                      A                      A
 Frequencies --   3252.9115              3289.9881              3304.9461
 Red. masses --      1.0908                 1.0919                 1.0943
 Frc consts  --      6.8005                 6.9632                 7.0424
 IR Inten    --      6.3564                11.3979                 7.0459

                     88                     89                     90
                      A                      A                      A
 Frequencies --   3488.4232              3561.8204              3580.2164
 Red. masses --      1.0528                 1.0487                 1.0779
 Frc consts  --      7.5480                 7.8388                 8.1402
 IR Inten    --    439.6049               240.9845               287.8728

                     91                     92                     93
                      A                      A                      A
 Frequencies --   3620.2926              3641.3908              3672.0561
 Red. masses --      1.0774                 1.1013                 1.1083
 Frc consts  --      8.3200                 8.6038                 8.8049
 IR Inten    --     50.7514               426.4955               228.6495

 - Thermochemistry -
 -------------------
 Temperature   298.150 Kelvin.  Pressure   1.00000 Atm.
 Atom     1 has atomic number  6 and mass  12.00000

 Molecular mass:   276.09191 amu.
 Principal axes and moments of inertia in atomic units:
                           1         2         3
     Eigenvalues --  1986.37493********************
           X            0.99989  -0.01516   0.00026
           Y            0.01516   0.99988  -0.00218
           Z           -0.00022   0.00219   1.00000
 This molecule is an asymmetric top.
 Rotational symmetry number  1.
 Warning -- assumption of classical behavior for rotation
           may cause significant error
 Rotational temperatures (Kelvin)      0.04360     0.00624     0.00547
 Rotational constants (GHZ):           0.90856     0.13005     0.11402
 Zero-point vibrational energy     685303.2 (Joules/Mol)
                                  163.79140 (Kcal/Mol)
 Warning -- explicit consideration of  30 degrees of freedom as
           vibrations may cause significant error
 Vibrational temperatures:     23.95    49.69    58.97   109.86   115.77
          (Kelvin)            131.63   136.09   171.49   192.17   291.57
                              306.69   364.80   377.58   382.24   402.14
                              478.93   506.02   520.67   557.37   557.52
                              653.51   660.13   710.03   754.23   773.34
                              789.45   792.42   830.33   867.79   887.32
                              907.80   959.25   999.00  1003.07  1011.95
                             1024.27  1051.57  1074.54  1189.38  1191.94
                             1243.14  1260.56  1272.91  1349.87  1369.31
                             1441.62  1446.63  1455.22  1465.67  1495.75
                             1536.36  1562.31  1585.93  1624.39  1662.25
                             1747.54  1762.43  1781.98  1823.20  1858.80
                             1924.53  1948.33  1978.87  2054.98  2105.87
                             2139.02  2155.09  2176.79  2189.29  2225.82
                             2252.99  2291.92  2302.51  2327.02  2370.50
                             2382.67  2399.14  2472.54  2548.10  4441.92
                             4541.61  4569.76  4618.56  4620.98  4680.21
                             4733.56  4755.08  5019.06  5124.67  5151.13
                             5208.79  5239.15  5283.27

 Zero-point correction=                           0.261018 (Hartree/Particle)
 Thermal correction to Energy=                    0.279380
 Thermal correction to Enthalpy=                  0.280324
 Thermal correction to Gibbs Free Energy=         0.212522
 Sum of electronic and zero-point Energies=          -1212.558314
 Sum of electronic and thermal Energies=             -1212.539952
 Sum of electronic and thermal Enthalpies=           -1212.539008
 Sum of electronic and thermal Free Energies=        -1212.606811

                     E (Thermal)             CV                S
                      KCal/Mol        Cal/Mol-Kelvin    Cal/Mol-Kelvin
 Total                  175.314             69.387            142.702
 Electronic               0.000              0.000              0.000
 Translational            0.889              2.981             42.745
 Rotational               0.889              2.981             34.433
 Vibrational            173.536             63.425             65.524
 Vibration     1          0.593              1.986              6.999
 Vibration     2          0.594              1.983              5.550
 Vibration     3          0.594              1.981              5.211
 Vibration     4          0.599              1.965              3.982
 Vibration     5          0.600              1.962              3.880
 Vibration     6          0.602              1.955              3.628
 Vibration     7          0.603              1.953              3.563
 Vibration     8          0.609              1.933              3.113
 Vibration     9          0.613              1.920              2.894
 Vibration    10          0.639              1.836              2.109
 Vibration    11          0.644              1.821              2.016
 Vibration    12          0.665              1.757              1.706
 Vibration    13          0.670              1.742              1.646
 Vibration    14          0.671              1.736              1.624
 Vibration    15          0.680              1.711              1.537
 Vibration    16          0.715              1.610              1.246
 Vibration    17          0.728              1.572              1.159
 Vibration    18          0.736              1.551              1.114
 Vibration    19          0.756              1.497              1.010
 Vibration    20          0.756              1.497              1.010
 Vibration    21          0.813              1.352              0.783
 Vibration    22          0.817              1.341              0.770
 Vibration    23          0.849              1.264              0.675
 Vibration    24          0.879              1.196              0.600
 Vibration    25          0.893              1.167              0.571
 Vibration    26          0.904              1.143              0.547
 Vibration    27          0.906              1.138              0.543
 Vibration    28          0.934              1.081              0.491
 Vibration    29          0.962              1.025              0.444
 Vibration    30          0.976              0.997              0.422

                           ! Non-Optimized Parameters !
 Normal termination of Gaussian 16 at Sun Jul 18 19:11:30 2021.

 ----------------------------------------------------------------------
 #p b3lyp/6-31G(d) scrf=(iefpcm,read,solvent=n-octanol) geom=allcheck g
 uess=read
 ----------------------------------------------------------------------

 Structure from the checkpoint file:  "SET_328_BBB321_conf1.geo_165_150_225.chk"
 ---------------------------------------------
 SET_328_BBB321_conf1.geo_165_150_225 geometry
 ---------------------------------------------
 Charge =  1 Multiplicity = 1

 SCF Done:  E(RB3LYP) =  -1212.81933253     A.U. after    1 cycles
 Normal termination of Gaussian 16 at Sun Jul 18 19:12:19 2021.

 -----------------------------
 #p B3LYP/6-31G* geom=allcheck
 -----------------------------

 Structure from the checkpoint file:  "SET_328_BBB321_conf1.geo_165_150_225.chk"
 ---------------------------------------------
 SET_328_BBB321_conf1.geo_165_150_225 geometry
 ---------------------------------------------
 Charge =  1 Multiplicity = 1

 SCF Done:  E(RB3LYP) =  -1212.69410345     A.U. after   16 cycles
 Normal termination of Gaussian 16 at Sun Jul 18 19:14:29 2021.
 Gaussian 16:  ES64L-G16RevA.03 25-Dec-2016

 --------------------------------------------------------
 #p mp2/aug-cc-pVDZ scf=tight maxdisk=180GB geom=allcheck
 --------------------------------------------------------

 Structure from the checkpoint file:  "SET_328_BBB321_conf1.geo_165_150_225.chk"
 ---------------------------------------------
 SET_328_BBB321_conf1.geo_165_150_225 geometry
 ---------------------------------------------
 Charge =  1 Multiplicity = 1

                         Standard orientation:
 ---------------------------------------------------------------------
 Center     Atomic      Atomic             Coordinates (Angstroms)
 Number     Number       Type             X           Y           Z
 ---------------------------------------------------------------------
      1          6           0        6.465634   -1.157122    0.174383
      2          1           0        7.189035   -0.886617    0.945993
      3          1           0        7.003519   -1.204995   -0.776650
      4          1           0        6.057666   -2.144157    0.395533
      5          6           0        5.415775   -0.066102    0.086793
      6          8           0        5.722781    1.117521   -0.005415
      7          7           0        4.119022   -0.521564    0.102257
      8          1           0        3.997175   -1.522529    0.185379
      9          6           0        2.926377    0.220166    0.003771
     10          6           0        2.901108    1.620378   -0.112491
     11          6           0        1.671753    2.270335   -0.203432
     12          6           0        0.472791    1.562200   -0.182715
     13          1           0       -0.475921    2.076829   -0.262062
     14          1           0        1.653297    3.351587   -0.293860
     15          1           0        3.834581    2.161416   -0.128075
     16          6           0        1.722014   -0.491609    0.028431
     17          1           0        1.745957   -1.571363    0.129718
     18          6           0        0.491038    0.165357   -0.067133
     19          6           0       -0.768530   -0.597531   -0.056608
     20          7           0       -1.976859    0.086106   -0.008962
     21          6           0       -0.893622   -1.958447   -0.103558
     22          1           0       -0.118387   -2.706200   -0.161812
     23         16           0       -2.563577   -2.435342   -0.084738
     24          6           0       -2.986944   -0.731554   -0.019936
     25          7           0       -4.319359   -0.347519    0.019798
     26          6           0       -4.795568    0.932034    0.104984
     27          7           0       -6.114383    1.096213    0.123692
     28          1           0       -6.513438    2.026162    0.184355
     29          1           0       -6.743402    0.302860    0.073041
     30          7           0       -3.966147    1.960061    0.167711
     31          1           0       -4.330901    2.903221    0.240833
     32          1           0       -2.962048    1.790365    0.152358
     33          1           0       -5.029021   -1.072975   -0.032031
 ---------------------------------------------------------------------

 SCF Done:  E(RHF) =  -1207.15562127     A.U. after   18 cycles
 E2 =    -0.2815930931D+01 EUMP2 =    -0.12099715521992D+04

 The electronic state is 1-A.
 Alpha  occ. eigenvalues --  -92.13573 -20.60492 -15.81625 -15.80124 -15.78677
 Alpha  occ. eigenvalues --  -15.72094 -15.69063 -11.60750 -11.51545 -11.44041
 Alpha  occ. eigenvalues --  -11.41383 -11.39195 -11.38323 -11.35567 -11.33733
 Alpha  occ. eigenvalues --  -11.33194 -11.33074 -11.31930 -11.31277  -9.13732
 Alpha  occ. eigenvalues --   -6.81894  -6.81788  -6.81594  -1.55221  -1.45933
 Alpha  occ. eigenvalues --   -1.45539  -1.39612  -1.38888  -1.33895  -1.24626
 Alpha  occ. eigenvalues --   -1.20513  -1.16926  -1.11752  -1.10851  -1.06397
 Alpha  occ. eigenvalues --   -1.05337  -0.99635  -0.98840  -0.95329  -0.93805
 Alpha  occ. eigenvalues --   -0.91176  -0.89155  -0.86649  -0.85750  -0.84386
 Alpha  occ. eigenvalues --   -0.82947  -0.81974  -0.81153  -0.76797  -0.75296
 Alpha  occ. eigenvalues --   -0.72364  -0.72303  -0.70913  -0.70057  -0.69355
 Alpha  occ. eigenvalues --   -0.68316  -0.66013  -0.64319  -0.64075  -0.63313
 Alpha  occ. eigenvalues --   -0.62373  -0.61510  -0.61407  -0.59040  -0.58131
 Alpha  occ. eigenvalues --   -0.58002  -0.53275  -0.51931  -0.49506  -0.47620
 Alpha  occ. eigenvalues --   -0.40990  -0.39025
 Alpha virt. eigenvalues --   -0.09154  -0.07086  -0.05426  -0.04888  -0.04443
 Alpha virt. eigenvalues --   -0.03663  -0.03383  -0.02835  -0.02358  -0.01831
 Alpha virt. eigenvalues --   -0.01420  -0.00347  -0.00041   0.00457   0.00730

 Mulliken charges:
               1
     1  C    0.499663
     2  H    0.040657
     3  H    0.067027
     4  H   -0.199713
     5  C    0.497377
     6  O   -0.858073
     7  N   -0.556679
     8  H   -0.023754
     9  C   -0.394188
    10  C    1.151860
    11  C   -0.116402
    12  C    0.788006
    13  H   -0.606397
    14  H   -0.540913
    15  H   -0.646081
    16  C    1.148298
    17  H   -0.774118
    18  C    1.627228
    19  C   -0.712657
    20  N   -0.692187
    21  C    0.501189
    22  H   -0.596635
    23  S    0.497910
    24  C    0.550848
    25  N   -0.726318
    26  C    1.339248
    27  N   -0.262320
    28  H    0.027390
    29  H   -0.001030
    30  N   -0.140394
    31  H    0.007546
    32  H    0.117239
    33  H   -0.013626
 Sum of Mulliken charges =   1.00000

 Dipole moment (field-independent basis, Debye):
    X=            -19.9965    Y=             -0.8808    Z=              0.6048  Tot=             20.0250
 Quadrupole moment (field-independent basis, Debye-Ang):
   XX=             15.8374   YY=            -87.8870   ZZ=           -124.2745
   XY=            -40.6918   XZ=             -0.7731   YZ=              0.7791

 Normal termination of Gaussian 16 at Sun Jul 18 20:19:30 2021.
