 Gaussian 16, Revision A.03,

 ---------------------------------------------------------------
 #p b3lyp/6-31G(d) opt freq scrf=(iefpcm,read,solvent=n-octanol)
 ---------------------------------------------------------------

 ---------------------------------------------
 SET_328_BBB321_conf1.geo_030_210_300 geometry
 ---------------------------------------------
 Symbolic Z-matrix:
 Charge =  1 Multiplicity = 1

 SCF Done:  E(RB3LYP) =  -1212.45644438     A.U. after   17 cycles
 SCF Done:  E(RB3LYP) =  -1212.59513297     A.U. after   13 cycles
 SCF Done:  E(RB3LYP) =  -1212.68097427     A.U. after   13 cycles
 SCF Done:  E(RB3LYP) =  -1212.73340817     A.U. after   12 cycles
 SCF Done:  E(RB3LYP) =  -1212.78004840     A.U. after   14 cycles
 SCF Done:  E(RB3LYP) =  -1212.79576624     A.U. after   11 cycles
 SCF Done:  E(RB3LYP) =  -1212.80418240     A.U. after   12 cycles
 SCF Done:  E(RB3LYP) =  -1212.80704400     A.U. after   11 cycles
 SCF Done:  E(RB3LYP) =  -1212.80917141     A.U. after   11 cycles
 SCF Done:  E(RB3LYP) =  -1212.81093508     A.U. after   12 cycles
 SCF Done:  E(RB3LYP) =  -1212.81446083     A.U. after    9 cycles
 SCF Done:  E(RB3LYP) =  -1212.81446347     A.U. after    9 cycles
 SCF Done:  E(RB3LYP) =  -1212.81447062     A.U. after    8 cycles
 SCF Done:  E(RB3LYP) =  -1212.81447185     A.U. after    7 cycles
 SCF Done:  E(RB3LYP) =  -1212.81447187     A.U. after    7 cycles
 SCF Done:  E(RB3LYP) =  -1212.81447170     A.U. after    6 cycles
 Optimization completed.
    -- Stationary point found.
 Normal termination of Gaussian 16 at Sun Jul 18 17:56:21 2021.

 --------------------------------------------------------------------
 #P Geom=AllCheck Guess=TCheck SCRF=Check GenChk RB3LYP/6-31G(d) Freq
 --------------------------------------------------------------------

 Structure from the checkpoint file:  "SET_328_BBB321_conf1.geo_030_210_300.chk"
 ---------------------------------------------
 SET_328_BBB321_conf1.geo_030_210_300 geometry
 ---------------------------------------------
 Charge =  1 Multiplicity = 1

 SCF Done:  E(RB3LYP) =  -1212.81447170     A.U. after    1 cycles

  Exact polarizability: 356.962   8.070 250.379   5.011  -4.991  94.163
 Approx polarizability: 381.292  16.102 354.344   6.714  -3.367 123.357

                      1                      2                      3
                      A                      A                      A
 Frequencies --     40.7573                49.7077                53.8133
 Red. masses --      4.8683                 4.8209                 1.4985
 Frc consts  --      0.0048                 0.0070                 0.0026
 IR Inten    --      5.0383                16.4157                 2.8088

                      4                      5                      6
                      A                      A                      A
 Frequencies --     67.3921                79.3236                95.9065
 Red. masses --      4.1930                 4.4456                 3.2783
 Frc consts  --      0.0112                 0.0165                 0.0178
 IR Inten    --      9.3947                 5.3045                 1.4236

                      7                      8                      9
                      A                      A                      A
 Frequencies --    108.0727               116.3900               147.3018
 Red. masses --      4.2733                 4.0583                 5.0375
 Frc consts  --      0.0294                 0.0324                 0.0644
 IR Inten    --      3.7471                 9.3946                 6.9178

                     10                     11                     12
                      A                      A                      A
 Frequencies --    185.1792               237.6852               256.8269
 Red. masses --      5.6830                 5.4438                 5.5774
 Frc consts  --      0.1148                 0.1812                 0.2168
 IR Inten    --      0.9632                 6.4759                 1.9525

                     13                     14                     15
                      A                      A                      A
 Frequencies --    265.0196               282.1678               314.5352
 Red. masses --      4.3414                 5.3148                 1.2936
 Frc consts  --      0.1797                 0.2493                 0.0754
 IR Inten    --      0.4628                 7.2070               384.3318

                     16                     17                     18
                      A                      A                      A
 Frequencies --    345.4489               347.6321               370.1352
 Red. masses --      4.5070                 6.9605                 5.6854
 Frc consts  --      0.3169                 0.4956                 0.4589
 IR Inten    --      1.9812                 1.1100                 4.3512

                     19                     20                     21
                      A                      A                      A
 Frequencies --    386.0368               434.7577               457.0731
 Red. masses --      4.5522                 1.1527                 3.1735
 Frc consts  --      0.3997                 0.1284                 0.3906
 IR Inten    --      4.9970                30.8907                 4.7931

                     22                     23                     24
                      A                      A                      A
 Frequencies --    482.8581               525.2759               536.0795
 Red. masses --      3.3156                 1.3443                 2.8735
 Frc consts  --      0.4555                 0.2185                 0.4865
 IR Inten    --      2.4685                37.0736                61.0699

                     25                     26                     27
                      A                      A                      A
 Frequencies --    543.4254               552.6406               556.7855
 Red. masses --      2.5151                 1.3668                 2.3304
 Frc consts  --      0.4376                 0.2459                 0.4257
 IR Inten    --     69.7985               227.1421               131.5185

                     28                     29                     30
                      A                      A                      A
 Frequencies --    570.7877               589.0714               600.1495
 Red. masses --      2.0457                 1.8755                 1.7233
 Frc consts  --      0.3927                 0.3835                 0.3657
 IR Inten    --     92.9223                 8.9541                32.0264

                     31                     32                     33
                      A                      A                      A
 Frequencies --    631.5109               652.6359               669.7962
 Red. masses --      2.2211                 5.8102                 5.0412
 Frc consts  --      0.5219                 1.4581                 1.3325
 IR Inten    --     12.2858                 6.2292                31.0234

                     34                     35                     36
                      A                      A                      A
 Frequencies --    680.3528               699.3558               702.0657
 Red. masses --      5.5172                 3.4961                 3.6372
 Frc consts  --      1.5047                 1.0075                 1.0563
 IR Inten    --     12.2540                16.5915                42.2782

                     37                     38                     39
                      A                      A                      A
 Frequencies --    711.6784               751.6149               759.7767
 Red. masses --      2.1160                 2.4688                 3.6973
 Frc consts  --      0.6315                 0.8217                 1.2575
 IR Inten    --      2.0063                49.8810                28.9496

                     40                     41                     42
                      A                      A                      A
 Frequencies --    816.7781               838.6040               893.2365
 Red. masses --      1.6869                 6.5209                 5.1108
 Frc consts  --      0.6631                 2.7019                 2.4025
 IR Inten    --     27.1156                31.7340                 9.3402

                     43                     44                     45
                      A                      A                      A
 Frequencies --    913.3201               930.6001               965.2684
 Red. masses --      1.3921                 1.4252                 4.5125
 Frc consts  --      0.6842                 0.7272                 2.4772
 IR Inten    --      1.1668                20.6049                 7.0878

                     46                     47                     48
                      A                      A                      A
 Frequencies --    976.8315               987.7497              1016.1275
 Red. masses --      5.0847                 1.2748                 6.2028
 Frc consts  --      2.8586                 0.7328                 3.7734
 IR Inten    --      1.1548                 1.2102                 1.5434

                     49                     50                     51
                      A                      A                      A
 Frequencies --   1034.4331              1053.1817              1067.9172
 Red. masses --      1.8509                 2.8699                 1.6885
 Frc consts  --      1.1669                 1.8755                 1.1346
 IR Inten    --     25.0909                30.4084                17.4124

                     52                     53                     54
                      A                      A                      A
 Frequencies --   1092.6263              1094.3568              1133.2025
 Red. masses --      1.5534                 1.5916                 1.5786
 Frc consts  --      1.0926                 1.1230                 1.1944
 IR Inten    --     18.7856                 2.6557                15.2171

                     55                     56                     57
                      A                      A                      A
 Frequencies --   1143.3498              1203.2628              1222.0573
 Red. masses --      1.5307                 1.1194                 1.6589
 Frc consts  --      1.1790                 0.9549                 1.4597
 IR Inten    --     11.1139                 0.4340                 5.4389

                     58                     59                     60
                      A                      A                      A
 Frequencies --   1269.4143              1294.2975              1301.0627
 Red. masses --      3.0983                 2.3566                 5.0565
 Frc consts  --      2.9416                 2.3260                 5.0431
 IR Inten    --     55.4624                77.0311               364.6728

                     61                     62                     63
                      A                      A                      A
 Frequencies --   1323.6696              1341.6280              1376.8824
 Red. masses --      1.8587                 3.4317                 3.5719
 Frc consts  --      1.9188                 3.6393                 3.9898
 IR Inten    --     27.1637                46.6289                28.1791

                     64                     65                     66
                      A                      A                      A
 Frequencies --   1427.5357              1428.4042              1479.2927
 Red. masses --      1.5759                 1.2610                 3.0384
 Frc consts  --      1.8922                 1.5158                 3.9175
 IR Inten    --    107.1608                26.0681               328.1969

                     67                     68                     69
                      A                      A                      A
 Frequencies --   1499.4230              1513.4994              1518.6231
 Red. masses --      1.1321                 2.2985                 1.1681
 Frc consts  --      1.4996                 3.1022                 1.5872
 IR Inten    --     27.9268                76.4432                71.7692

                     70                     71                     72
                      A                      A                      A
 Frequencies --   1559.0972              1575.1632              1588.1290
 Red. masses --      3.4153                 2.9381                 2.1613
 Frc consts  --      4.8913                 4.2950                 3.2117
 IR Inten    --     39.5616               105.9242                69.7587

                     73                     74                     75
                      A                      A                      A
 Frequencies --   1593.9182              1616.0930              1648.1188
 Red. masses --      2.2977                 2.2244                 5.4056
 Frc consts  --      3.4393                 3.4230                 8.6511
 IR Inten    --    352.2508               660.6019               181.5397

                     76                     77                     78
                      A                      A                      A
 Frequencies --   1653.4852              1666.9506              1708.7700
 Red. masses --      1.3914                 4.8059                 3.2809
 Frc consts  --      2.2414                 7.8682                 5.6442
 IR Inten    --    538.5484                29.5838               965.5994

                     79                     80                     81
                      A                      A                      A
 Frequencies --   1770.2218              3085.7213              3153.4562
 Red. masses --      7.5906                 1.0390                 1.0997
 Frc consts  --     14.0146                 5.8288                 6.4432
 IR Inten    --    272.0312                 7.1848                15.2285

                     82                     83                     84
                      A                      A                      A
 Frequencies --   3188.6852              3202.8451              3218.8710
 Red. masses --      1.1024                 1.0871                 1.0935
 Frc consts  --      6.6042                 6.5703                 6.6754
 IR Inten    --     12.4076                12.3274                33.4120

                     85                     86                     87
                      A                      A                      A
 Frequencies --   3248.2430              3273.1129              3311.0566
 Red. masses --      1.0923                 1.0900                 1.0940
 Frc consts  --      6.7906                 6.8801                 7.0667
 IR Inten    --      5.4332                 7.7015                 6.0937

                     88                     89                     90
                      A                      A                      A
 Frequencies --   3536.3519              3546.4635              3560.0272
 Red. masses --      1.0754                 1.0461                 1.0508
 Frc consts  --      7.9237                 7.7517                 7.8465
 IR Inten    --    224.9274               311.8663               292.2936

                     91                     92                     93
                      A                      A                      A
 Frequencies --   3610.6084              3649.4473              3668.2120
 Red. masses --      1.0775                 1.1048                 1.1091
 Frc consts  --      8.2760                 8.6693                 8.7931
 IR Inten    --     65.4644               202.8596               226.7872

 - Thermochemistry -
 -------------------
 Temperature   298.150 Kelvin.  Pressure   1.00000 Atm.
 Atom     1 has atomic number  6 and mass  12.00000

 Molecular mass:   276.09191 amu.
 Principal axes and moments of inertia in atomic units:
                           1         2         3
     Eigenvalues --  2024.00442********************
           X            0.99999  -0.00351  -0.00059
           Y            0.00351   0.99997  -0.00652
           Z            0.00061   0.00652   0.99998
 This molecule is an asymmetric top.
 Rotational symmetry number  1.
 Warning -- assumption of classical behavior for rotation
           may cause significant error
 Rotational temperatures (Kelvin)      0.04279     0.00642     0.00564
 Rotational constants (GHZ):           0.89167     0.13367     0.11750
 Zero-point vibrational energy     685739.6 (Joules/Mol)
                                  163.89570 (Kcal/Mol)
 Warning -- explicit consideration of  30 degrees of freedom as
           vibrations may cause significant error
 Vibrational temperatures:     58.64    71.52    77.43    96.96   114.13
          (Kelvin)            137.99   155.49   167.46   211.93   266.43
                              341.98   369.52   381.30   405.98   452.55
                              497.02   500.17   532.54   555.42   625.52
                              657.63   694.73   755.75   771.30   781.87
                              795.13   801.09   821.24   847.54   863.48
                              908.60   939.00   963.69   978.88  1006.22
                             1010.12  1023.95  1081.41  1093.15  1175.16
                             1206.56  1285.17  1314.06  1338.93  1388.81
                             1405.44  1421.15  1461.98  1488.32  1515.29
                             1536.49  1572.05  1574.54  1630.43  1645.03
                             1731.23  1758.27  1826.40  1862.21  1871.94
                             1904.47  1930.30  1981.03  2053.91  2055.16
                             2128.37  2157.34  2177.59  2184.96  2243.19
                             2266.31  2284.96  2293.29  2325.20  2371.28
                             2379.00  2398.37  2458.54  2546.95  4439.66
                             4537.12  4587.81  4608.18  4631.24  4673.50
                             4709.28  4763.87  5088.02  5102.57  5122.09
                             5194.86  5250.74  5277.74

 Zero-point correction=                           0.261184 (Hartree/Particle)
 Thermal correction to Energy=                    0.279270
 Thermal correction to Enthalpy=                  0.280214
 Thermal correction to Gibbs Free Energy=         0.214260
 Sum of electronic and zero-point Energies=          -1212.553287
 Sum of electronic and thermal Energies=             -1212.535202
 Sum of electronic and thermal Enthalpies=           -1212.534257
 Sum of electronic and thermal Free Energies=        -1212.600212

                     E (Thermal)             CV                S
                      KCal/Mol        Cal/Mol-Kelvin    Cal/Mol-Kelvin
 Total                  175.245             69.264            138.813
 Electronic               0.000              0.000              0.000
 Translational            0.889              2.981             42.745
 Rotational               0.889              2.981             34.395
 Vibrational            173.467             63.302             61.674
 Vibration     1          0.594              1.981              5.222
 Vibration     2          0.595              1.978              4.829
 Vibration     3          0.596              1.976              4.672
 Vibration     4          0.598              1.970              4.228
 Vibration     5          0.600              1.963              3.908
 Vibration     6          0.603              1.952              3.536
 Vibration     7          0.606              1.943              3.303
 Vibration     8          0.608              1.936              3.159
 Vibration     9          0.617              1.906              2.707
 Vibration    10          0.631              1.860              2.276
 Vibration    11          0.656              1.783              1.820
 Vibration    12          0.666              1.751              1.683
 Vibration    13          0.671              1.737              1.628
 Vibration    14          0.681              1.707              1.520
 Vibration    15          0.702              1.646              1.338
 Vibration    16          0.724              1.585              1.187
 Vibration    17          0.725              1.580              1.177
 Vibration    18          0.742              1.534              1.079
 Vibration    19          0.755              1.500              1.015
 Vibration    20          0.795              1.394              0.843
 Vibration    21          0.815              1.345              0.775
 Vibration    22          0.839              1.288              0.702
 Vibration    23          0.880              1.194              0.598
 Vibration    24          0.891              1.170              0.574
 Vibration    25          0.899              1.154              0.558
 Vibration    26          0.908              1.134              0.539
 Vibration    27          0.912              1.125              0.530
 Vibration    28          0.927              1.094              0.503
 Vibration    29          0.946              1.055              0.469
 Vibration    30          0.958              1.031              0.449

 Optimization completed.
    -- Stationary point found.
 Normal termination of Gaussian 16 at Sun Jul 18 18:24:54 2021.

 ----------------------------------------------------------------------
 #p b3lyp/6-31G(d) scrf=(iefpcm,read,solvent=n-octanol) geom=allcheck g
 uess=read
 ----------------------------------------------------------------------

 Structure from the checkpoint file:  "SET_328_BBB321_conf1.geo_030_210_300.chk"
 ---------------------------------------------
 SET_328_BBB321_conf1.geo_030_210_300 geometry
 ---------------------------------------------
 Charge =  1 Multiplicity = 1

 SCF Done:  E(RB3LYP) =  -1212.81447170     A.U. after    1 cycles
 Normal termination of Gaussian 16 at Sun Jul 18 18:25:37 2021.

 -----------------------------
 #p B3LYP/6-31G* geom=allcheck
 -----------------------------

 Structure from the checkpoint file:  "SET_328_BBB321_conf1.geo_030_210_300.chk"
 ---------------------------------------------
 SET_328_BBB321_conf1.geo_030_210_300 geometry
 ---------------------------------------------
 Charge =  1 Multiplicity = 1

 SCF Done:  E(RB3LYP) =  -1212.68573584     A.U. after   16 cycles
 Normal termination of Gaussian 16 at Sun Jul 18 18:27:39 2021.
 Gaussian 16:  ES64L-G16RevA.03 25-Dec-2016

 --------------------------------------------------------
 #p mp2/aug-cc-pVDZ scf=tight maxdisk=180GB geom=allcheck
 --------------------------------------------------------

 Structure from the checkpoint file:  "SET_328_BBB321_conf1.geo_030_210_300.chk"
 ---------------------------------------------
 SET_328_BBB321_conf1.geo_030_210_300 geometry
 ---------------------------------------------
 Charge =  1 Multiplicity = 1

                         Standard orientation:
 ---------------------------------------------------------------------
 Center     Atomic      Atomic             Coordinates (Angstroms)
 Number     Number       Type             X           Y           Z
 ---------------------------------------------------------------------
      1          6           0        6.262485   -1.536068   -0.057393
      2          1           0        6.896616   -0.760850    0.377393
      3          1           0        6.573343   -1.694699   -1.094715
      4          1           0        6.413493   -2.470741    0.481832
      5          6           0        4.785160   -1.194729   -0.027107
      6          8           0        3.920291   -2.062310   -0.095114
      7          7           0        4.515224    0.149865    0.052718
      8          1           0        5.317713    0.764976    0.102619
      9          6           0        3.266681    0.802830    0.058353
     10          6           0        3.273513    2.205505    0.146044
     11          6           0        2.074208    2.908972    0.156788
     12          6           0        0.856243    2.235401    0.084204
     13          1           0       -0.082486    2.774055    0.095022
     14          1           0        2.091110    3.991517    0.224244
     15          1           0        4.218537    2.736330    0.205276
     16          6           0        2.046507    0.122371   -0.016523
     17          1           0        2.059858   -0.955746   -0.086119
     18          6           0        0.840064    0.837523   -0.001149
     19          6           0       -0.449070    0.125068   -0.066301
     20          7           0       -1.625444    0.859574   -0.071730
     21          6           0       -0.628823   -1.232287   -0.096794
     22          1           0        0.112688   -2.013984   -0.060023
     23         16           0       -2.313701   -1.637867   -0.146679
     24          6           0       -2.665640    0.086687   -0.102533
     25          7           0       -3.949709    0.620725   -0.222189
     26          6           0       -5.131649    0.026850    0.080869
     27          7           0       -6.238737    0.523793   -0.449713
     28          1           0       -6.196311    1.196136   -1.208818
     29          1           0       -7.147445    0.193365   -0.144324
     30          7           0       -5.164337   -1.052763    0.866615
     31          1           0       -6.063075   -1.495515    1.032209
     32          1           0       -4.477388   -1.160989    1.606289
     33          1           0       -3.996818    1.563389   -0.603775
 ---------------------------------------------------------------------

 SCF Done:  E(RHF) =  -1207.14803149     A.U. after   18 cycles
 E2 =    -0.2816912329D+01 EUMP2 =    -0.12099649438189D+04

 The electronic state is 1-A.
 Alpha  occ. eigenvalues --  -92.12755 -20.60577 -15.80932 -15.80857 -15.80039
 Alpha  occ. eigenvalues --  -15.70862 -15.68566 -11.61368 -11.49770 -11.43947
 Alpha  occ. eigenvalues --  -11.39930 -11.38064 -11.37481 -11.34193 -11.32546
 Alpha  occ. eigenvalues --  -11.32365 -11.31845 -11.31743 -11.31090  -9.12912
 Alpha  occ. eigenvalues --   -6.81071  -6.80969  -6.80780  -1.55404  -1.45913
 Alpha  occ. eigenvalues --   -1.45030  -1.40128  -1.38242  -1.33378  -1.23583
 Alpha  occ. eigenvalues --   -1.19373  -1.16038  -1.10872  -1.10059  -1.05903
 Alpha  occ. eigenvalues --   -1.05456  -0.99218  -0.98251  -0.95060  -0.92784
 Alpha  occ. eigenvalues --   -0.90708  -0.88881  -0.87507  -0.85585  -0.85297
 Alpha  occ. eigenvalues --   -0.82288  -0.80127  -0.78860  -0.75783  -0.75195
 Alpha  occ. eigenvalues --   -0.71882  -0.71427  -0.69765  -0.69232  -0.69173
 Alpha  occ. eigenvalues --   -0.67124  -0.65809  -0.64276  -0.63169  -0.62879
 Alpha  occ. eigenvalues --   -0.62170  -0.61772  -0.60444  -0.58325  -0.57604
 Alpha  occ. eigenvalues --   -0.56347  -0.52662  -0.51111  -0.49492  -0.46821
 Alpha  occ. eigenvalues --   -0.40038  -0.38222
 Alpha virt. eigenvalues --   -0.09255  -0.06936  -0.06158  -0.05410  -0.04128
 Alpha virt. eigenvalues --   -0.03546  -0.02820  -0.02301  -0.01946  -0.01671
 Alpha virt. eigenvalues --   -0.00864  -0.00568   0.00136   0.00270   0.00535

 Mulliken charges:
               1
     1  C    0.570719
     2  H   -0.113987
     3  H    0.067294
     4  H   -0.003606
     5  C    0.456801
     6  O   -0.882694
     7  N   -0.633395
     8  H   -0.050709
     9  C   -0.747682
    10  C    1.114353
    11  C    0.295498
    12  C    0.666056
    13  H   -0.673565
    14  H   -0.487517
    15  H   -0.712829
    16  C    1.158089
    17  H   -0.633846
    18  C    1.627722
    19  C   -0.270046
    20  N   -0.806834
    21  C    0.617597
    22  H   -0.629102
    23  S    0.487503
    24  C    0.392532
    25  N   -0.726172
    26  C    1.196328
    27  N   -0.239532
    28  H    0.025726
    29  H    0.030003
    30  N   -0.143755
    31  H    0.034086
    32  H    0.078522
    33  H   -0.063559
 Sum of Mulliken charges =   1.00000

 Dipole moment (field-independent basis, Debye):
    X=            -18.6322    Y=              1.9386    Z=              0.6766  Tot=             18.7450
 Quadrupole moment (field-independent basis, Debye-Ang):
   XX=             69.5668   YY=           -107.4814   ZZ=           -116.7076
   XY=              8.0715   XZ=             -1.0250   YZ=             -6.5922

 Normal termination of Gaussian 16 at Sun Jul 18 19:30:44 2021.
