 Gaussian 16, Revision A.03,

 ---------------------------------------------------------------
 #p b3lyp/6-31G(d) opt freq scrf=(iefpcm,read,solvent=n-octanol)
 ---------------------------------------------------------------

 ---------------------------------------------
 SET_328_BBB301_conf1.geo_165_120_105 geometry
 ---------------------------------------------
 Symbolic Z-matrix:
 Charge =  1 Multiplicity = 1

 SCF Done:  E(RB3LYP) =  -788.845681714     A.U. after   12 cycles
 SCF Done:  E(RB3LYP) =  -788.882114274     A.U. after   11 cycles
 SCF Done:  E(RB3LYP) =  -788.884861919     A.U. after   11 cycles
 SCF Done:  E(RB3LYP) =  -788.904502540     A.U. after   11 cycles
 SCF Done:  E(RB3LYP) =  -788.907107746     A.U. after   10 cycles
 SCF Done:  E(RB3LYP) =  -788.908570094     A.U. after   11 cycles
 SCF Done:  E(RB3LYP) =  -788.909431345     A.U. after   10 cycles
 SCF Done:  E(RB3LYP) =  -788.909984074     A.U. after   10 cycles
 SCF Done:  E(RB3LYP) =  -788.911090679     A.U. after   11 cycles
 SCF Done:  E(RB3LYP) =  -788.913380207     A.U. after   13 cycles
 SCF Done:  E(RB3LYP) =  -788.918390270     A.U. after    8 cycles
 SCF Done:  E(RB3LYP) =  -788.918355599     A.U. after    8 cycles
 SCF Done:  E(RB3LYP) =  -788.918369132     A.U. after    9 cycles
 SCF Done:  E(RB3LYP) =  -788.918373002     A.U. after    8 cycles
 SCF Done:  E(RB3LYP) =  -788.918372983     A.U. after    7 cycles
 SCF Done:  E(RB3LYP) =  -788.918373127     A.U. after    7 cycles
 Optimization completed.
    -- Stationary point found.
 Normal termination of Gaussian 16 at Sun Jul 18 16:35:23 2021.

 --------------------------------------------------------------------
 #P Geom=AllCheck Guess=TCheck SCRF=Check GenChk RB3LYP/6-31G(d) Freq
 --------------------------------------------------------------------

 Structure from the checkpoint file:  "SET_328_BBB301_conf1.geo_165_120_105.chk"
 ---------------------------------------------
 SET_328_BBB301_conf1.geo_165_120_105 geometry
 ---------------------------------------------
 Charge =  1 Multiplicity = 1

 SCF Done:  E(RB3LYP) =  -788.918373127     A.U. after    1 cycles

  Exact polarizability: 226.950  10.693 172.988 -19.840  24.163 146.766
 Approx polarizability: 253.905  15.852 215.953 -27.265  34.245 183.348

                      1                      2                      3
                      A                      A                      A
 Frequencies --     29.1320                53.4994                70.1715
 Red. masses --      4.2825                 5.0619                 3.3044
 Frc consts  --      0.0021                 0.0085                 0.0096
 IR Inten    --      5.6351                 2.0639                 2.2822

                      4                      5                      6
                      A                      A                      A
 Frequencies --     92.5851               110.3709               140.8046
 Red. masses --      3.0827                 4.1909                 4.4405
 Frc consts  --      0.0156                 0.0301                 0.0519
 IR Inten    --      0.5879                 6.0033                 0.0882

                      7                      8                      9
                      A                      A                      A
 Frequencies --    163.2979               171.4838               208.6533
 Red. masses --      3.9507                 3.1075                 3.3650
 Frc consts  --      0.0621                 0.0538                 0.0863
 IR Inten    --      7.0959                 1.8814                 5.6984

                     10                     11                     12
                      A                      A                      A
 Frequencies --    228.0483               256.6398               273.6902
 Red. masses --      2.7006                 2.6871                 2.4918
 Frc consts  --      0.0828                 0.1043                 0.1100
 IR Inten    --      1.1470                 1.2354                 3.3732

                     13                     14                     15
                      A                      A                      A
 Frequencies --    283.8897               297.8006               308.5992
 Red. masses --      1.6374                 1.8198                 1.1619
 Frc consts  --      0.0778                 0.0951                 0.0652
 IR Inten    --      4.3062                 4.8394                 1.6401

                     16                     17                     18
                      A                      A                      A
 Frequencies --    323.0831               341.2317               358.7618
 Red. masses --      1.1354                 1.3355                 2.4584
 Frc consts  --      0.0698                 0.0916                 0.1864
 IR Inten    --      2.3105               185.8233                 5.4930

                     19                     20                     21
                      A                      A                      A
 Frequencies --    369.4118               378.8636               383.7824
 Red. masses --      1.1491                 2.1848                 3.9136
 Frc consts  --      0.0924                 0.1848                 0.3396
 IR Inten    --    190.0529                 1.9760                16.7996

                     22                     23                     24
                      A                      A                      A
 Frequencies --    409.4639               441.3218               469.0822
 Red. masses --      3.9542                 3.5233                 2.5587
 Frc consts  --      0.3906                 0.4043                 0.3317
 IR Inten    --      1.6711                 1.0493                17.9454

                     25                     26                     27
                      A                      A                      A
 Frequencies --    478.3194               487.9637               505.5112
 Red. masses --      3.1102                 1.1841                 3.0075
 Frc consts  --      0.4193                 0.1661                 0.4528
 IR Inten    --     14.3248               209.0951                14.8678

                     28                     29                     30
                      A                      A                      A
 Frequencies --    512.4712               545.1524               591.1731
 Red. masses --      2.4498                 2.8640                 3.5346
 Frc consts  --      0.3791                 0.5015                 0.7278
 IR Inten    --      6.9220                 9.1754                19.4495

                     31                     32                     33
                      A                      A                      A
 Frequencies --    614.2459               669.1058               734.9833
 Red. masses --      5.9453                 4.5923                 4.6945
 Frc consts  --      1.3216                 1.2113                 1.4941
 IR Inten    --     11.4714                23.5135                 0.0228

                     34                     35                     36
                      A                      A                      A
 Frequencies --    752.1931               781.3901               814.5066
 Red. masses --      4.5602                 4.3691                 3.5852
 Frc consts  --      1.5202                 1.5717                 1.4014
 IR Inten    --      7.8606                11.8986                 8.4091

                     37                     38                     39
                      A                      A                      A
 Frequencies --    840.5362               858.0749               880.9979
 Red. masses --      1.4185                 1.4418                 2.7608
 Frc consts  --      0.5905                 0.6254                 1.2625
 IR Inten    --     31.9304                 6.4749                 5.2798

                     40                     41                     42
                      A                      A                      A
 Frequencies --    913.7605               924.2864               954.3484
 Red. masses --      1.3946                 2.3484                 1.5686
 Frc consts  --      0.6860                 1.1820                 0.8417
 IR Inten    --     14.8634                23.0916                 1.0850

                     43                     44                     45
                      A                      A                      A
 Frequencies --    958.6375               963.3931               963.6827
 Red. masses --      2.0211                 1.4647                 1.5430
 Frc consts  --      1.0943                 0.8009                 0.8443
 IR Inten    --      8.9950                 0.6845                 1.2899

                     46                     47                     48
                      A                      A                      A
 Frequencies --    995.1997              1003.2312              1015.1234
 Red. masses --      1.7278                 1.4106                 3.3197
 Frc consts  --      1.0082                 0.8365                 2.0155
 IR Inten    --     21.5334                 8.4629                37.4015

                     49                     50                     51
                      A                      A                      A
 Frequencies --   1035.7208              1064.1455              1082.9940
 Red. masses --      1.9039                 5.5410                 2.0398
 Frc consts  --      1.2033                 3.6969                 1.4096
 IR Inten    --     34.9435               111.0893                79.1084

                     52                     53                     54
                      A                      A                      A
 Frequencies --   1100.0594              1118.9585              1138.2823
 Red. masses --      1.5213                 1.7355                 2.0700
 Frc consts  --      1.0847                 1.2803                 1.5802
 IR Inten    --     10.9004                29.1389               118.9844

                     55                     56                     57
                      A                      A                      A
 Frequencies --   1183.7960              1189.5992              1203.7123
 Red. masses --      1.2180                 1.3728                 1.3510
 Frc consts  --      1.0057                 1.1446                 1.1533
 IR Inten    --     25.9615                27.8387                23.6868

                     58                     59                     60
                      A                      A                      A
 Frequencies --   1225.9325              1227.8789              1266.3386
 Red. masses --      1.4828                 1.5749                 2.3160
 Frc consts  --      1.3130                 1.3990                 2.1882
 IR Inten    --    200.6784                62.0826                11.6793

                     61                     62                     63
                      A                      A                      A
 Frequencies --   1267.4057              1298.6677              1304.0642
 Red. masses --      2.1288                 2.0661                 2.5129
 Frc consts  --      2.0148                 2.0530                 2.5178
 IR Inten    --     35.4765                14.3245               151.3339

                     64                     65                     66
                      A                      A                      A
 Frequencies --   1326.0061              1334.9483              1342.6759
 Red. masses --      1.7455                 1.6533                 1.4448
 Frc consts  --      1.8083                 1.7359                 1.5346
 IR Inten    --      2.6426                40.9508                35.2097

                     67                     68                     69
                      A                      A                      A
 Frequencies --   1373.4723              1387.7050              1403.4979
 Red. masses --      1.6960                 1.3831                 1.8964
 Frc consts  --      1.8850                 1.5692                 2.2009
 IR Inten    --    121.0760                10.2124                 5.4337

                     70                     71                     72
                      A                      A                      A
 Frequencies --   1422.4991              1441.3694              1448.9044
 Red. masses --      1.4482                 1.2928                 1.2851
 Frc consts  --      1.7266                 1.5825                 1.5895
 IR Inten    --     49.5864                49.8567                50.7292

                     73                     74                     75
                      A                      A                      A
 Frequencies --   1449.7441              1455.6154              1465.6071
 Red. masses --      1.2375                 1.1591                 1.2212
 Frc consts  --      1.5325                 1.4470                 1.5455
 IR Inten    --    146.4249                29.0974                27.6605

                     76                     77                     78
                      A                      A                      A
 Frequencies --   1485.4531              1505.2567              1510.9951
 Red. masses --      2.6398                 1.0838                 1.0920
 Frc consts  --      3.4319                 1.4468                 1.4689
 IR Inten    --     73.2179                 2.3726                17.2259

                     79                     80                     81
                      A                      A                      A
 Frequencies --   1514.0720              1519.2478              1521.4424
 Red. masses --      1.0764                 1.0479                 1.0933
 Frc consts  --      1.4539                 1.4251                 1.4911
 IR Inten    --     21.3799                 1.0040                 0.5124

                     82                     83                     84
                      A                      A                      A
 Frequencies --   1530.4939              1546.4624              1556.1629
 Red. masses --      1.0583                 1.0599                 1.1092
 Frc consts  --      1.4606                 1.4935                 1.5826
 IR Inten    --     10.7734                20.9728                31.6616

                     85                     86                     87
                      A                      A                      A
 Frequencies --   1559.7574              1568.7147              1658.3147
 Red. masses --      2.6172                 1.0949                 6.1800
 Frc consts  --      3.7515                 1.5874                10.0132
 IR Inten    --     44.2770                12.2046                 6.4074

                     88                     89                     90
                      A                      A                      A
 Frequencies --   1669.7339              1717.5844              3016.1612
 Red. masses --      6.4094                 1.0654                 1.0704
 Frc consts  --     10.5284                 1.8519                 5.7373
 IR Inten    --     66.9170               102.7567                81.2881

                     91                     92                     93
                      A                      A                      A
 Frequencies --   3031.5433              3078.2665              3083.1350
 Red. masses --      1.0845                 1.0356                 1.0367
 Frc consts  --      5.8725                 5.7817                 5.8061
 IR Inten    --     51.3631                17.5640                 7.6034

                     94                     95                     96
                      A                      A                      A
 Frequencies --   3092.1182              3119.6473              3148.4208
 Red. masses --      1.0382                 1.0934                 1.0781
 Frc consts  --      5.8485                 6.2698                 6.2967
 IR Inten    --      6.9888                42.6714                 2.3497

                     97                     98                     99
                      A                      A                      A
 Frequencies --   3151.0918              3154.0903              3157.3004
 Red. masses --      1.0988                 1.0914                 1.1020
 Frc consts  --      6.4280                 6.3971                 6.4724
 IR Inten    --     16.9976                 4.3300                 9.0084

                    100                    101                    102
                      A                      A                      A
 Frequencies --   3160.6028              3166.9550              3178.8466
 Red. masses --      1.0966                 1.1017                 1.1001
 Frc consts  --      6.4541                 6.5103                 6.5497
 IR Inten    --     34.0079                23.7195                14.6149

                    103                    104                    105
                      A                      A                      A
 Frequencies --   3183.4036              3210.7198              3217.0608
 Red. masses --      1.0898                 1.0886                 1.1106
 Frc consts  --      6.5068                 6.6119                 6.7723
 IR Inten    --     21.8953                14.1837                 4.7313

                    106                    107                    108
                      A                      A                      A
 Frequencies --   3235.5981              3402.5053              3448.7333
 Red. masses --      1.0923                 1.0537                 1.0921
 Frc consts  --      6.7376                 7.1874                 7.6532
 IR Inten    --      5.2574                98.3949               127.4569

                    109                    110                    111
                      A                      A                      A
 Frequencies --   3712.3354              3737.1817              3741.9888
 Red. masses --      1.0652                 1.0666                 1.0660
 Frc consts  --      8.6493                 8.7769                 8.7944
 IR Inten    --     92.3741               100.1731               146.0968

 - Thermochemistry -
 -------------------
 Temperature   298.150 Kelvin.  Pressure   1.00000 Atm.
 Atom     1 has atomic number  6 and mass  12.00000

 Molecular mass:   240.15997 amu.
 Principal axes and moments of inertia in atomic units:
                           1         2         3
     Eigenvalues --  1899.34508********************
           X            0.99997  -0.00697   0.00422
           Y            0.00685   0.99960   0.02743
           Z           -0.00441  -0.02740   0.99961
 This molecule is an asymmetric top.
 Rotational symmetry number  1.
 Warning -- assumption of classical behavior for rotation
           may cause significant error
 Rotational temperatures (Kelvin)      0.04560     0.00859     0.00799
 Rotational constants (GHZ):           0.95019     0.17891     0.16657
 Zero-point vibrational energy     913785.2 (Joules/Mol)
                                  218.39990 (Kcal/Mol)
 Warning -- explicit consideration of  31 degrees of freedom as
           vibrations may cause significant error
 Vibrational temperatures:     41.91    76.97   100.96   133.21   158.80
          (Kelvin)            202.59   234.95   246.73   300.21   328.11
                              369.25   393.78   408.45   428.47   444.01
                              464.84   490.96   516.18   531.50   545.10
                              552.18   589.13   634.96   674.90   688.19
                              702.07   727.32   737.33   784.35   850.57
                              883.76   962.69  1057.48  1082.24  1124.25
                             1171.89  1209.34  1234.58  1267.56  1314.70
                             1329.84  1373.09  1379.27  1386.11  1386.52
                             1431.87  1443.43  1460.54  1490.17  1531.07
                             1558.19  1582.74  1609.93  1637.73  1703.22
                             1711.57  1731.87  1763.84  1766.64  1821.98
                             1823.51  1868.49  1876.26  1907.83  1920.69
                             1931.81  1976.12  1996.60  2019.32  2046.66
                             2073.81  2084.65  2085.86  2094.31  2108.68
                             2137.24  2165.73  2173.98  2178.41  2185.86
                             2189.02  2202.04  2225.01  2238.97  2244.14
                             2257.03  2385.94  2402.37  2471.22  4339.58
                             4361.71  4428.94  4435.94  4448.87  4488.48
                             4529.88  4533.72  4538.03  4542.65  4547.40
                             4556.54  4573.65  4580.21  4619.51  4628.63
                             4655.30  4895.45  4961.96  5341.22  5376.97
                             5383.89

 Zero-point correction=                           0.348042 (Hartree/Particle)
 Thermal correction to Energy=                    0.365823
 Thermal correction to Enthalpy=                  0.366767
 Thermal correction to Gibbs Free Energy=         0.303076
 Sum of electronic and zero-point Energies=           -788.570331
 Sum of electronic and thermal Energies=              -788.552550
 Sum of electronic and thermal Enthalpies=            -788.551606
 Sum of electronic and thermal Free Energies=         -788.615297

                     E (Thermal)             CV                S
                      KCal/Mol        Cal/Mol-Kelvin    Cal/Mol-Kelvin
 Total                  229.557             69.952            134.049
 Electronic               0.000              0.000              0.000
 Translational            0.889              2.981             42.330
 Rotational               0.889              2.981             33.695
 Vibrational            227.780             63.991             58.024
 Vibration     1          0.593              1.984              5.888
 Vibration     2          0.596              1.976              4.684
 Vibration     3          0.598              1.968              4.149
 Vibration     4          0.602              1.954              3.605
 Vibration     5          0.606              1.941              3.262
 Vibration     6          0.615              1.912              2.793
 Vibration     7          0.623              1.887              2.511
 Vibration     8          0.626              1.878              2.419
 Vibration     9          0.642              1.827              2.055
 Vibration    10          0.651              1.798              1.894
 Vibration    11          0.666              1.752              1.685
 Vibration    12          0.676              1.722              1.573
 Vibration    13          0.682              1.704              1.510
 Vibration    14          0.691              1.678              1.429
 Vibration    15          0.698              1.657              1.370
 Vibration    16          0.708              1.629              1.294
 Vibration    17          0.721              1.593              1.206
 Vibration    18          0.734              1.557              1.127
 Vibration    19          0.742              1.535              1.082
 Vibration    20          0.749              1.515              1.044
 Vibration    21          0.753              1.505              1.024
 Vibration    22          0.774              1.450              0.929
 Vibration    23          0.801              1.380              0.822
 Vibration    24          0.826              1.319              0.740
 Vibration    25          0.835              1.298              0.715
 Vibration    26          0.844              1.277              0.689
 Vibration    27          0.861              1.238              0.644
 Vibration    28          0.868              1.222              0.628
 Vibration    29          0.900              1.150              0.554
 Vibration    30          0.949              1.051              0.465
 Vibration    31          0.974              1.002              0.426

                           ! Non-Optimized Parameters !
 Normal termination of Gaussian 16 at Sun Jul 18 17:12:46 2021.

 ----------------------------------------------------------------------
 #p b3lyp/6-31G(d) scrf=(iefpcm,read,solvent=n-octanol) geom=allcheck g
 uess=read
 ----------------------------------------------------------------------

 Structure from the checkpoint file:  "SET_328_BBB301_conf1.geo_165_120_105.chk"
 ---------------------------------------------
 SET_328_BBB301_conf1.geo_165_120_105 geometry
 ---------------------------------------------
 Charge =  1 Multiplicity = 1

 SCF Done:  E(RB3LYP) =  -788.920545730     A.U. after    1 cycles
 Normal termination of Gaussian 16 at Sun Jul 18 17:13:43 2021.

 -----------------------------
 #p B3LYP/6-31G* geom=allcheck
 -----------------------------

 Structure from the checkpoint file:  "SET_328_BBB301_conf1.geo_165_120_105.chk"
 ---------------------------------------------
 SET_328_BBB301_conf1.geo_165_120_105 geometry
 ---------------------------------------------
 Charge =  1 Multiplicity = 1

 SCF Done:  E(RB3LYP) =  -788.820980070     A.U. after   14 cycles
 Normal termination of Gaussian 16 at Sun Jul 18 17:16:03 2021.
 Gaussian 16:  ES64L-G16RevA.03 25-Dec-2016

 --------------------------------------------------------
 #p mp2/aug-cc-pVDZ scf=tight maxdisk=180GB geom=allcheck
 --------------------------------------------------------

 Structure from the checkpoint file:  "SET_328_BBB301_conf1.geo_165_120_105.chk"
 ---------------------------------------------
 SET_328_BBB301_conf1.geo_165_120_105 geometry
 ---------------------------------------------
 Charge =  1 Multiplicity = 1

                         Standard orientation:
 ---------------------------------------------------------------------
 Center     Atomic      Atomic             Coordinates (Angstroms)
 Number     Number       Type             X           Y           Z
 ---------------------------------------------------------------------
      1          6           0       -3.999490   -0.175612   -1.702198
      2          1           0       -4.857396    0.145400   -2.296727
      3          1           0       -4.053231   -1.263551   -1.602481
      4          1           0       -3.097696    0.082640   -2.263008
      5          6           0       -4.063663    0.523573   -0.342671
      6          6           0       -3.868110    2.036005   -0.471544
      7          1           0       -4.675903    2.443605   -1.083012
      8          1           0       -2.923206    2.288935   -0.960868
      9          1           0       -3.905270    2.531315    0.503675
     10          6           0       -5.377271    0.197231    0.374526
     11          1           0       -5.416799    0.646895    1.370728
     12          1           0       -5.527418   -0.883109    0.471494
     13          1           0       -6.209775    0.599708   -0.205797
     14          7           0       -2.943286   -0.031854    0.556042
     15          1           0       -3.100159   -1.035527    0.730865
     16          6           0       -1.522362    0.094691    0.081163
     17          1           0       -1.250488    1.147694    0.067584
     18          1           0       -1.475543   -0.307983   -0.929164
     19          6           0       -0.605438   -0.717289    1.002226
     20          8           0       -1.174814   -2.023623    0.991407
     21          1           0       -0.726645   -2.566034    1.662406
     22          1           0       -0.649061   -0.288630    2.012930
     23          6           0        0.825695   -0.681281    0.503157
     24          6           0        1.685252    0.361132    0.872330
     25          1           0        1.337414    1.138972    1.548012
     26          6           0        2.992411    0.430553    0.399388
     27          6           0        3.938319    1.541242    0.791042
     28          8           0        4.483787    2.232322   -0.326031
     29          1           0        4.977283    1.562265   -0.829418
     30          1           0        4.740586    1.135092    1.424293
     31          1           0        3.400859    2.284516    1.384586
     32          6           0        3.442454   -0.582004   -0.464628
     33          8           0        4.737463   -0.469625   -0.892838
     34          1           0        4.963948   -1.200633   -1.491994
     35          6           0        2.604832   -1.631572   -0.840889
     36          1           0        2.970166   -2.409970   -1.503773
     37          6           0        1.296706   -1.674070   -0.357284
     38          1           0        0.636519   -2.488080   -0.632547
     39          1           0       -3.022683    0.411280    1.481915
 ---------------------------------------------------------------------

 SCF Done:  E(RHF) =  -784.035666463     A.U. after   16 cycles
 E2 =    -0.2633432389D+01 EUMP2 =    -0.78666909885162D+03

 The electronic state is 1-A.
 Alpha  occ. eigenvalues --  -20.72484 -20.70758 -20.63622 -15.84297 -11.45880
 Alpha  occ. eigenvalues --  -11.45125 -11.44391 -11.41656 -11.37826 -11.37765
 Alpha  occ. eigenvalues --  -11.37587 -11.37023 -11.35973 -11.35829 -11.35767
 Alpha  occ. eigenvalues --  -11.34910 -11.34606  -1.52683  -1.51587  -1.46600
 Alpha  occ. eigenvalues --   -1.43166  -1.27165  -1.24715  -1.18434  -1.14698
 Alpha  occ. eigenvalues --   -1.11901  -1.09996  -1.09348  -1.01418  -1.01147
 Alpha  occ. eigenvalues --   -0.96090  -0.94879  -0.92709  -0.90126  -0.85157
 Alpha  occ. eigenvalues --   -0.83901  -0.82833  -0.82285  -0.79592  -0.77918
 Alpha  occ. eigenvalues --   -0.75802  -0.74966  -0.74123  -0.73536  -0.72273
 Alpha  occ. eigenvalues --   -0.71058  -0.70831  -0.70255  -0.69005  -0.68844
 Alpha  occ. eigenvalues --   -0.68768  -0.67879  -0.67054  -0.66317  -0.66117
 Alpha  occ. eigenvalues --   -0.63997  -0.63617  -0.63362  -0.62540  -0.59992
 Alpha  occ. eigenvalues --   -0.58475  -0.57270  -0.52262  -0.44751  -0.42201
 Alpha virt. eigenvalues --   -0.07774  -0.05754  -0.05487  -0.04968  -0.03697
 Alpha virt. eigenvalues --   -0.03586  -0.03368  -0.03187  -0.02915  -0.02373
 Alpha virt. eigenvalues --   -0.01604  -0.01176  -0.00876  -0.00805  -0.00052

 Mulliken charges:
               1
     1  C    1.306585
     2  H   -0.028563
     3  H    0.001893
     4  H   -0.023067
     5  C   -3.412707
     6  C    1.316246
     7  H    0.020382
     8  H   -0.035943
     9  H   -0.022652
    10  C    1.308756
    11  H   -0.013070
    12  H    0.002375
    13  H    0.030447
    14  N   -0.694695
    15  H    0.272980
    16  C    0.769359
    17  H   -0.252145
    18  H   -0.213378
    19  C    1.393763
    20  O   -0.902540
    21  H    0.201307
    22  H   -0.252027
    23  C    0.543088
    24  C    0.855048
    25  H   -0.769388
    26  C   -0.349620
    27  C    1.247641
    28  O   -0.715344
    29  H    0.196376
    30  H    0.060584
    31  H   -0.263129
    32  C    0.969842
    33  O   -1.068465
    34  H    0.255260
    35  C    0.250702
    36  H   -0.619692
    37  C    0.169363
    38  H   -0.753901
    39  H    0.218329
 Sum of Mulliken charges =   1.00000

 Dipole moment (field-independent basis, Debye):
    X=            -11.0633    Y=             -2.4612    Z=              1.4453  Tot=             11.4256
 Quadrupole moment (field-independent basis, Debye-Ang):
   XX=            -39.3271   YY=            -97.5679   ZZ=            -89.2620
   XY=            -20.3448   XZ=             -6.3020   YZ=              4.5781

 Normal termination of Gaussian 16 at Sun Jul 18 18:20:49 2021.
