 Gaussian 16, Revision A.03,

 ---------------------------------------------------------------
 #p b3lyp/6-31G(d) opt freq scrf=(iefpcm,read,solvent=n-octanol)
 ---------------------------------------------------------------

 ---------------------------------------------
 SET_328_BBB256_conf1.geo_180_180_270 geometry
 ---------------------------------------------
 Symbolic Z-matrix:
 Charge =  1 Multiplicity = 1

 SCF Done:  E(RB3LYP) =  -422.012989284     A.U. after   12 cycles
 SCF Done:  E(RB3LYP) =  -422.038111415     A.U. after   11 cycles
 SCF Done:  E(RB3LYP) =  -422.029858849     A.U. after   12 cycles
 SCF Done:  E(RB3LYP) =  -422.045403175     A.U. after   11 cycles
 SCF Done:  E(RB3LYP) =  -422.045662930     A.U. after   10 cycles
 SCF Done:  E(RB3LYP) =  -422.046138452     A.U. after   11 cycles
 SCF Done:  E(RB3LYP) =  -422.046479337     A.U. after   11 cycles
 SCF Done:  E(RB3LYP) =  -422.046751007     A.U. after   11 cycles
 SCF Done:  E(RB3LYP) =  -422.046763600     A.U. after   10 cycles
 SCF Done:  E(RB3LYP) =  -422.046752777     A.U. after   11 cycles
 SCF Done:  E(RB3LYP) =  -422.047075417     A.U. after    9 cycles
 SCF Done:  E(RB3LYP) =  -422.047076752     A.U. after    8 cycles
 SCF Done:  E(RB3LYP) =  -422.047075672     A.U. after    8 cycles
 SCF Done:  E(RB3LYP) =  -422.047075420     A.U. after    6 cycles
 SCF Done:  E(RB3LYP) =  -422.047076575     A.U. after    8 cycles
 SCF Done:  E(RB3LYP) =  -422.047075143     A.U. after    8 cycles
 Optimization completed.
    -- Stationary point found.
 Normal termination of Gaussian 16 at Sun Jul 18 14:25:58 2021.

 --------------------------------------------------------------------
 #P Geom=AllCheck Guess=TCheck SCRF=Check GenChk RB3LYP/6-31G(d) Freq
 --------------------------------------------------------------------

 Structure from the checkpoint file:  "SET_328_BBB256_conf1.geo_180_180_270.chk"
 ---------------------------------------------
 SET_328_BBB256_conf1.geo_180_180_270 geometry
 ---------------------------------------------
 Charge =  1 Multiplicity = 1

 SCF Done:  E(RB3LYP) =  -422.047075143     A.U. after    1 cycles

  Exact polarizability: 143.188  -5.900 115.585 -11.693  -6.008  65.846
 Approx polarizability: 163.038  -5.445 154.325 -17.280 -10.933  83.446

                      1                      2                      3
                      A                      A                      A
 Frequencies --     73.4937                99.3841               139.4165
 Red. masses --      3.6709                 3.7865                 1.4827
 Frc consts  --      0.0117                 0.0220                 0.0170
 IR Inten    --      4.2484                 4.6141                 2.3931

                      4                      5                      6
                      A                      A                      A
 Frequencies --    171.1354               216.0907               232.4310
 Red. masses --      1.5548                 1.8417                 2.9627
 Frc consts  --      0.0268                 0.0507                 0.0943
 IR Inten    --      2.2425                14.4834                 4.3828

                      7                      8                      9
                      A                      A                      A
 Frequencies --    306.1763               322.0295               414.5202
 Red. masses --      2.9995                 3.6814                 3.0457
 Frc consts  --      0.1657                 0.2249                 0.3083
 IR Inten    --     11.2138                 8.5828                 4.5417

                     10                     11                     12
                      A                      A                      A
 Frequencies --    423.6558               519.1392               616.1696
 Red. masses --      3.2571                 2.9146                 5.9690
 Frc consts  --      0.3444                 0.4628                 1.3352
 IR Inten    --      0.5668                 5.8689                 2.7128

                     13                     14                     15
                      A                      A                      A
 Frequencies --    647.0660               753.7306               772.9217
 Red. masses --      6.1825                 2.4930                 1.2029
 Frc consts  --      1.5251                 0.8345                 0.4234
 IR Inten    --      2.4581                 0.6084                27.9307

                     16                     17                     18
                      A                      A                      A
 Frequencies --    804.5140               843.9142               868.2965
 Red. masses --      1.4674                 4.5501                 1.1604
 Frc consts  --      0.5596                 1.9093                 0.5155
 IR Inten    --     30.4769                 1.7848                15.3519

                     19                     20                     21
                      A                      A                      A
 Frequencies --    915.4619               949.0195               984.6532
 Red. masses --      1.3135                 2.7173                 1.4054
 Frc consts  --      0.6486                 1.4419                 0.8028
 IR Inten    --      1.4993                33.5586                 0.2612

                     22                     23                     24
                      A                      A                      A
 Frequencies --   1013.2530              1017.8370              1018.7846
 Red. masses --      6.4252                 1.3132                 5.2443
 Frc consts  --      3.8866                 0.8016                 3.2070
 IR Inten    --      8.7492                 0.2729                26.2355

                     25                     26                     27
                      A                      A                      A
 Frequencies --   1046.0796              1062.9091              1078.1141
 Red. masses --      1.4454                 2.9035                 2.2648
 Frc consts  --      0.9319                 1.9327                 1.5510
 IR Inten    --      2.6716                 5.7853                 6.0377

                     28                     29                     30
                      A                      A                      A
 Frequencies --   1113.5296              1151.6042              1179.6424
 Red. masses --      1.4095                 1.2868                 1.6045
 Frc consts  --      1.0297                 1.0055                 1.3155
 IR Inten    --      1.3195                 2.8847                13.7878

                     31                     32                     33
                      A                      A                      A
 Frequencies --   1183.7021              1245.1348              1290.6291
 Red. masses --      1.1230                 2.1961                 1.9539
 Frc consts  --      0.9271                 2.0061                 1.9176
 IR Inten    --      4.9036                10.9360                 2.5961

                     34                     35                     36
                      A                      A                      A
 Frequencies --   1310.9493              1331.4717              1332.5603
 Red. masses --      2.4359                 1.6652                 1.3229
 Frc consts  --      2.4665                 1.7393                 1.3841
 IR Inten    --      1.1711                 1.7803                10.4489

                     37                     38                     39
                      A                      A                      A
 Frequencies --   1362.7271              1417.1560              1459.4365
 Red. masses --      1.2638                 1.4107                 1.1566
 Frc consts  --      1.3828                 1.6693                 1.4514
 IR Inten    --      2.3890                 3.4361                 0.8850

                     40                     41                     42
                      A                      A                      A
 Frequencies --   1479.5869              1484.5812              1491.8422
 Red. masses --      1.3175                 1.7715                 1.0955
 Frc consts  --      1.6993                 2.3004                 1.4365
 IR Inten    --     28.9409                31.1961                 3.9452

                     43                     44                     45
                      A                      A                      A
 Frequencies --   1508.4671              1515.6744              1522.1487
 Red. masses --      1.0615                 1.0629                 2.1119
 Frc consts  --      1.4231                 1.4386                 2.8829
 IR Inten    --     21.8488                10.1558                43.7486

                     46                     47                     48
                      A                      A                      A
 Frequencies --   1524.5866              1566.2659              1634.2987
 Red. masses --      1.0715                 1.1439                 5.8320
 Frc consts  --      1.4674                 1.6534                 9.1776
 IR Inten    --     13.8996                97.4366                22.8982

                     49                     50                     51
                      A                      A                      A
 Frequencies --   1652.1910              1677.0903              3061.4715
 Red. masses --      5.4474                 1.0673                 1.0650
 Frc consts  --      8.7612                 1.7687                 5.8809
 IR Inten    --     65.2617               107.9401                19.0005

                     52                     53                     54
                      A                      A                      A
 Frequencies --   3119.6649              3124.3128              3125.1971
 Red. masses --      1.0985                 1.0325                 1.0576
 Frc consts  --      6.2987                 5.9379                 6.0859
 IR Inten    --     15.7060                 4.3205                12.1358

                     55                     56                     57
                      A                      A                      A
 Frequencies --   3186.3827              3193.5009              3217.5409
 Red. masses --      1.1097                 1.0900                 1.0881
 Frc consts  --      6.6382                 6.5494                 6.6371
 IR Inten    --      7.3094                34.5082                 5.4478

                     58                     59                     60
                      A                      A                      A
 Frequencies --   3222.2786              3223.9136              3231.8157
 Red. masses --      1.1093                 1.1097                 1.0939
 Frc consts  --      6.7864                 6.7955                 6.7317
 IR Inten    --      3.7783                 4.5101                19.9491

                     61                     62                     63
                      A                      A                      A
 Frequencies --   3246.6530              3393.4967              3434.5713
 Red. masses --      1.0966                 1.0556                 1.0958
 Frc consts  --      6.8101                 7.1621                 7.6158
 IR Inten    --     16.1455               128.5165               173.1686

 - Thermochemistry -
 -------------------
 Temperature   298.150 Kelvin.  Pressure   1.00000 Atm.
 Atom     1 has atomic number  6 and mass  12.00000

 Molecular mass:   137.10787 amu.
 Principal axes and moments of inertia in atomic units:
                           1         2         3
     Eigenvalues --   455.965263150.121713457.00336
           X            0.99999   0.00380   0.00057
           Y           -0.00381   0.99994   0.00982
           Z           -0.00053  -0.00983   0.99995
 This molecule is an asymmetric top.
 Rotational symmetry number  1.
 Warning -- assumption of classical behavior for rotation
           may cause significant error
 Rotational temperatures (Kelvin)      0.18996     0.02750     0.02505
 Rotational constants (GHZ):           3.95807     0.57291     0.52205
 Zero-point vibrational energy     547448.7 (Joules/Mol)
                                  130.84338 (Kcal/Mol)
 Warning -- explicit consideration of  12 degrees of freedom as
           vibrations may cause significant error
 Vibrational temperatures:    105.74   142.99   200.59   246.23   310.91
          (Kelvin)            334.42   440.52   463.33   596.40   609.55
                              746.93   886.53   930.98  1084.45  1112.06
                             1157.52  1214.20  1249.28  1317.15  1365.43
                             1416.70  1457.85  1464.44  1465.80  1505.08
                             1529.29  1551.17  1602.12  1656.90  1697.24
                             1703.08  1791.47  1856.93  1886.16  1915.69
                             1917.26  1960.66  2038.97  2099.80  2128.80
                             2135.98  2146.43  2170.35  2180.72  2190.03
                             2193.54  2253.51  2351.39  2377.13  2412.96
                             4404.77  4488.50  4495.19  4496.46  4584.49
                             4594.74  4629.32  4636.14  4638.49  4649.86
                             4671.21  4882.48  4941.58

 Zero-point correction=                           0.208512 (Hartree/Particle)
 Thermal correction to Energy=                    0.217982
 Thermal correction to Enthalpy=                  0.218926
 Thermal correction to Gibbs Free Energy=         0.173563
 Sum of electronic and zero-point Energies=           -421.838563
 Sum of electronic and thermal Energies=              -421.829093
 Sum of electronic and thermal Enthalpies=            -421.828149
 Sum of electronic and thermal Free Energies=         -421.873512

                     E (Thermal)             CV                S
                      KCal/Mol        Cal/Mol-Kelvin    Cal/Mol-Kelvin
 Total                  136.786             35.788             95.475
 Electronic               0.000              0.000              0.000
 Translational            0.889              2.981             40.659
 Rotational               0.889              2.981             29.986
 Vibrational            135.008             29.827             24.831
 Vibration     1          0.599              1.967              4.058
 Vibration     2          0.604              1.950              3.466
 Vibration     3          0.615              1.914              2.812
 Vibration     4          0.626              1.878              2.423
 Vibration     5          0.645              1.817              1.992
 Vibration     6          0.653              1.791              1.860
 Vibration     7          0.697              1.662              1.383
 Vibration     8          0.707              1.631              1.300
 Vibration     9          0.778              1.439              0.911
 Vibration    10          0.786              1.419              0.880
 Vibration    11          0.874              1.208              0.612
 Vibration    12          0.976              0.998              0.423

 Optimization completed.
    -- Stationary point found.
 Normal termination of Gaussian 16 at Sun Jul 18 14:35:13 2021.

 ----------------------------------------------------------------------
 #p b3lyp/6-31G(d) scrf=(iefpcm,read,solvent=n-octanol) geom=allcheck g
 uess=read
 ----------------------------------------------------------------------

 Structure from the checkpoint file:  "SET_328_BBB256_conf1.geo_180_180_270.chk"
 ---------------------------------------------
 SET_328_BBB256_conf1.geo_180_180_270 geometry
 ---------------------------------------------
 Charge =  1 Multiplicity = 1

 SCF Done:  E(RB3LYP) =  -422.051809072     A.U. after    1 cycles
 Normal termination of Gaussian 16 at Sun Jul 18 14:35:37 2021.

 -----------------------------
 #p B3LYP/6-31G* geom=allcheck
 -----------------------------

 Structure from the checkpoint file:  "SET_328_BBB256_conf1.geo_180_180_270.chk"
 ---------------------------------------------
 SET_328_BBB256_conf1.geo_180_180_270 geometry
 ---------------------------------------------
 Charge =  1 Multiplicity = 1

 SCF Done:  E(RB3LYP) =  -421.950796234     A.U. after   14 cycles
 Normal termination of Gaussian 16 at Sun Jul 18 14:36:32 2021.
 Gaussian 16:  ES64L-G16RevA.03 25-Dec-2016

 --------------------------------------------------------
 #p mp2/aug-cc-pVDZ scf=tight maxdisk=180GB geom=allcheck
 --------------------------------------------------------

 Structure from the checkpoint file:  "SET_328_BBB256_conf1.geo_180_180_270.chk"
 ---------------------------------------------
 SET_328_BBB256_conf1.geo_180_180_270 geometry
 ---------------------------------------------
 Charge =  1 Multiplicity = 1

                         Standard orientation:
 ---------------------------------------------------------------------
 Center     Atomic      Atomic             Coordinates (Angstroms)
 Number     Number       Type             X           Y           Z
 ---------------------------------------------------------------------
      1          6           0       -4.125268   -0.575077   -0.464037
      2          1           0       -3.937162   -1.608210   -0.178655
      3          1           0       -4.019567   -0.455448   -1.540394
      4          1           0       -5.119673   -0.269231   -0.145353
      5          7           0       -3.109766    0.296849    0.212429
      6          1           0       -3.220507    0.223078    1.233776
      7          6           0       -1.693616   -0.054738   -0.179831
      8          1           0       -1.644632    0.038132   -1.265658
      9          1           0       -1.531329   -1.098378    0.091198
     10          6           0       -0.660865    0.837744    0.508156
     11          1           0       -0.818291    0.812603    1.592776
     12          1           0       -0.767979    1.877405    0.187190
     13          6           0        0.748462    0.356627    0.216797
     14          7           0        0.973138   -0.957725    0.369818
     15          6           0        2.214498   -1.409298    0.155694
     16          1           0        2.361926   -2.478348    0.285708
     17          6           0        3.281774   -0.589775   -0.210113
     18          1           0        4.267207   -1.010841   -0.364685
     19          6           0        3.040305    0.772691   -0.371607
     20          1           0        3.838671    1.448069   -0.658770
     21          6           0        1.750287    1.254466   -0.159579
     22          1           0        1.518858    2.306798   -0.277439
     23          1           0       -3.304591    1.284653   -0.008306
 ---------------------------------------------------------------------

 SCF Done:  E(RHF) =  -419.254094067     A.U. after   15 cycles
 E2 =    -0.1456693209D+01 EUMP2 =    -0.42071078727657D+03

 The electronic state is 1-A.
 Alpha  occ. eigenvalues --  -15.87800 -15.68648 -11.46586 -11.45798 -11.40838
 Alpha  occ. eigenvalues --  -11.39800 -11.38884 -11.37010 -11.35705 -11.34982
 Alpha  occ. eigenvalues --   -1.49551  -1.37771  -1.22662  -1.19676  -1.15261
 Alpha  occ. eigenvalues --   -1.11929  -1.04712  -0.97182  -0.95759  -0.94232
 Alpha  occ. eigenvalues --   -0.85764  -0.83841  -0.80708  -0.79430  -0.76298
 Alpha  occ. eigenvalues --   -0.75586  -0.74550  -0.74006  -0.70288  -0.69481
 Alpha  occ. eigenvalues --   -0.67848  -0.67047  -0.63792  -0.62562  -0.53238
 Alpha  occ. eigenvalues --   -0.48952  -0.45144
 Alpha virt. eigenvalues --   -0.09653  -0.07094  -0.06661  -0.05612  -0.04123
 Alpha virt. eigenvalues --   -0.03415  -0.03378  -0.03150  -0.02027  -0.01809
 Alpha virt. eigenvalues --   -0.01402  -0.01175  -0.00718   0.00305   0.00708

 Mulliken charges:
               1
     1  C    0.761142
     2  H   -0.055335
     3  H   -0.055645
     4  H   -0.126999
     5  N   -0.715249
     6  H    0.202936
     7  C    1.071553
     8  H   -0.225325
     9  H   -0.171495
    10  C    0.387539
    11  H    0.009142
    12  H   -0.161280
    13  C    0.021171
    14  N   -0.676468
    15  C    0.450320
    16  H   -0.356273
    17  C    0.932188
    18  H   -0.399238
    19  C   -0.235511
    20  H   -0.389105
    21  C    1.088650
    22  H   -0.560442
    23  H    0.203722
 Sum of Mulliken charges =   1.00000

 Dipole moment (field-independent basis, Debye):
    X=            -10.4204    Y=              1.8961    Z=             -0.2142  Tot=             10.5937
 Quadrupole moment (field-independent basis, Debye-Ang):
   XX=              3.5908   YY=            -51.3828   ZZ=            -58.7121
   XY=             -2.0738   XZ=             -2.9689   YZ=              0.3134

 Normal termination of Gaussian 16 at Sun Jul 18 14:43:57 2021.
