 Gaussian 16, Revision A.03,

 ---------------------------------------------------------------
 #p b3lyp/6-31G(d) opt freq scrf=(iefpcm,read,solvent=n-octanol)
 ---------------------------------------------------------------

 ---------------------------------------------
 SET_328_BBB292_conf1.geo_090_300_120 geometry
 ---------------------------------------------
 Symbolic Z-matrix:
 Charge =  1 Multiplicity = 1

 SCF Done:  E(RB3LYP) =  -705.657824440     A.U. after   13 cycles
 SCF Done:  E(RB3LYP) =  -705.685374948     A.U. after   12 cycles
 SCF Done:  E(RB3LYP) =  -705.694751094     A.U. after   12 cycles
 SCF Done:  E(RB3LYP) =  -705.694136651     A.U. after   12 cycles
 SCF Done:  E(RB3LYP) =  -705.697070991     A.U. after   11 cycles
 SCF Done:  E(RB3LYP) =  -705.697804388     A.U. after   11 cycles
 SCF Done:  E(RB3LYP) =  -705.698206394     A.U. after   11 cycles
 SCF Done:  E(RB3LYP) =  -705.698508491     A.U. after   11 cycles
 SCF Done:  E(RB3LYP) =  -705.698655122     A.U. after   10 cycles
 SCF Done:  E(RB3LYP) =  -705.698529249     A.U. after   11 cycles
 SCF Done:  E(RB3LYP) =  -705.698934260     A.U. after    7 cycles
 SCF Done:  E(RB3LYP) =  -705.698938567     A.U. after    9 cycles
 SCF Done:  E(RB3LYP) =  -705.698933881     A.U. after    9 cycles
 SCF Done:  E(RB3LYP) =  -705.698934293     A.U. after    7 cycles
 SCF Done:  E(RB3LYP) =  -705.698938497     A.U. after    9 cycles
 SCF Done:  E(RB3LYP) =  -705.698934176     A.U. after    9 cycles
 Optimization completed.
    -- Stationary point found.
 Normal termination of Gaussian 16 at Sun Jul 18 15:33:31 2021.

 --------------------------------------------------------------------
 #P Geom=AllCheck Guess=TCheck SCRF=Check GenChk RB3LYP/6-31G(d) Freq
 --------------------------------------------------------------------

 Structure from the checkpoint file:  "SET_328_BBB292_conf1.geo_090_300_120.chk"
 ---------------------------------------------
 SET_328_BBB292_conf1.geo_090_300_120 geometry
 ---------------------------------------------
 Charge =  1 Multiplicity = 1

 SCF Done:  E(RB3LYP) =  -705.698934176     A.U. after    1 cycles

  Exact polarizability: 160.078  -6.196 147.523 -25.872  -7.824  87.759
 Approx polarizability: 196.908  -6.112 194.826 -41.585 -12.888 116.489

                      1                      2                      3
                      A                      A                      A
 Frequencies --     43.5762                54.8491                92.3060
 Red. masses --      7.2489                 5.7993                 5.8484
 Frc consts  --      0.0081                 0.0103                 0.0294
 IR Inten    --     44.2636                21.2687                11.9660

                      4                      5                      6
                      A                      A                      A
 Frequencies --    123.0546               182.5678               191.0597
 Red. masses --      5.0793                 5.7075                 1.8283
 Frc consts  --      0.0453                 0.1121                 0.0393
 IR Inten    --     13.6983                13.6320               199.2168

                      7                      8                      9
                      A                      A                      A
 Frequencies --    216.2608               247.2978               281.8500
 Red. masses --      1.7916                 4.8208                 2.1650
 Frc consts  --      0.0494                 0.1737                 0.1013
 IR Inten    --     54.5063                 7.1964                79.9417

                     10                     11                     12
                      A                      A                      A
 Frequencies --    324.1370               340.5015               372.4931
 Red. masses --      5.0586                 2.6645                 3.0613
 Frc consts  --      0.3131                 0.1820                 0.2503
 IR Inten    --      7.3214                23.4199                71.7838

                     13                     14                     15
                      A                      A                      A
 Frequencies --    395.7309               433.2776               451.7072
 Red. masses --      2.9196                 3.2822                 1.8135
 Frc consts  --      0.2694                 0.3630                 0.2180
 IR Inten    --      2.5533                13.5707                51.5034

                     16                     17                     18
                      A                      A                      A
 Frequencies --    464.6750               473.2340               507.5882
 Red. masses --      1.7985                 2.4770                 3.7106
 Frc consts  --      0.2288                 0.3268                 0.5633
 IR Inten    --     33.6464                12.7303                22.6282

                     19                     20                     21
                      A                      A                      A
 Frequencies --    522.1820               576.2172               599.8339
 Red. masses --      1.5668                 2.5550                 5.4518
 Frc consts  --      0.2517                 0.4998                 1.1557
 IR Inten    --      0.2967                10.5922                21.5068

                     22                     23                     24
                      A                      A                      A
 Frequencies --    628.0708               652.4010               707.2380
 Red. masses --      3.5473                 4.7807                 5.7051
 Frc consts  --      0.8245                 1.1989                 1.6813
 IR Inten    --     10.4116                 2.9242                 0.4963

                     25                     26                     27
                      A                      A                      A
 Frequencies --    733.1367               768.8834               805.1799
 Red. masses --      5.2331                 4.9163                 5.1878
 Frc consts  --      1.6572                 1.7124                 1.9816
 IR Inten    --      6.1447                20.6059                23.1479

                     28                     29                     30
                      A                      A                      A
 Frequencies --    838.0575               854.5213               880.0424
 Red. masses --      1.8169                 2.1591                 1.4595
 Frc consts  --      0.7518                 0.9289                 0.6660
 IR Inten    --     12.5446                23.8736                44.7234

                     31                     32                     33
                      A                      A                      A
 Frequencies --    899.2239               950.9190               962.4583
 Red. masses --      2.4742                 1.3555                 1.9654
 Frc consts  --      1.1788                 0.7222                 1.0727
 IR Inten    --     16.7938                 2.0946                10.4458

                     34                     35                     36
                      A                      A                      A
 Frequencies --    977.8686              1046.4850              1106.9367
 Red. masses --      2.8539                 2.4124                 1.3942
 Frc consts  --      1.6079                 1.5566                 1.0065
 IR Inten    --      6.4587                20.5790                42.9135

                     37                     38                     39
                      A                      A                      A
 Frequencies --   1139.7862              1154.5472              1174.5352
 Red. masses --      1.8819                 1.4824                 1.4264
 Frc consts  --      1.4405                 1.1642                 1.1593
 IR Inten    --    141.9094               144.1712                73.6378

                     40                     41                     42
                      A                      A                      A
 Frequencies --   1198.8355              1223.7159              1236.5680
 Red. masses --      1.4851                 1.4948                 1.4517
 Frc consts  --      1.2576                 1.3188                 1.3078
 IR Inten    --     14.3204                 6.0222               128.6681

                     43                     44                     45
                      A                      A                      A
 Frequencies --   1266.4518              1301.8794              1316.6296
 Red. masses --      1.2034                 2.9220                 1.7077
 Frc consts  --      1.1372                 2.9179                 1.7441
 IR Inten    --    142.3488               223.1962               117.0808

                     46                     47                     48
                      A                      A                      A
 Frequencies --   1333.5339              1347.3688              1377.2985
 Red. masses --      2.4190                 2.0992                 1.7630
 Frc consts  --      2.5346                 2.2454                 1.9704
 IR Inten    --    208.6606               162.2868                75.0026

                     49                     50                     51
                      A                      A                      A
 Frequencies --   1398.8113              1420.7059              1443.1420
 Red. masses --      1.3785                 1.5782                 2.3713
 Frc consts  --      1.5892                 1.8768                 2.9098
 IR Inten    --     42.6303                87.9543                23.6399

                     52                     53                     54
                      A                      A                      A
 Frequencies --   1495.3468              1526.5530              1580.3402
 Red. masses --      3.5348                 1.0953                 3.1676
 Frc consts  --      4.6569                 1.5038                 4.6610
 IR Inten    --    135.3233                77.2016               169.6899

                     55                     56                     57
                      A                      A                      A
 Frequencies --   1588.8850              1665.1903              1672.3472
 Red. masses --      1.1429                 4.8539                 6.1840
 Frc consts  --      1.6999                 7.9300                10.1900
 IR Inten    --    196.2586                33.0749                40.7426

                     58                     59                     60
                      A                      A                      A
 Frequencies --   1700.9117              1718.2714              1857.0821
 Red. masses --      1.0634                 1.0630                 9.4753
 Frc consts  --      1.8127                 1.8491                19.2534
 IR Inten    --    111.1365                91.7547               314.6712

                     61                     62                     63
                      A                      A                      A
 Frequencies --   3099.9125              3144.2471              3170.4208
 Red. masses --      1.0605                 1.1040                 1.0864
 Frc consts  --      6.0041                 6.4309                 6.4338
 IR Inten    --     18.7331                 5.8635                 2.5202

                     64                     65                     66
                      A                      A                      A
 Frequencies --   3210.2954              3219.3864              3242.1834
 Red. masses --      1.0900                 1.0880                 1.0935
 Frc consts  --      6.6186                 6.6442                 6.7723
 IR Inten    --      9.5152                14.0814                 9.5941

                     67                     68                     69
                      A                      A                      A
 Frequencies --   3368.1408              3431.8546              3449.0175
 Red. masses --      1.0396                 1.0877                 1.0907
 Frc consts  --      6.9484                 7.5479                 7.6442
 IR Inten    --    130.9438               222.0601               232.5479

                     70                     71                     72
                      A                      A                      A
 Frequencies --   3698.5418              3766.9300              3776.2708
 Red. masses --      1.0650                 1.0664                 1.0661
 Frc consts  --      8.5833                 8.9158                 8.9570
 IR Inten    --    176.8929               168.7042                85.3600

 - Thermochemistry -
 -------------------
 Temperature   298.150 Kelvin.  Pressure   1.00000 Atm.
 Atom     1 has atomic number  7 and mass  14.00307

 Molecular mass:   198.07663 amu.
 Principal axes and moments of inertia in atomic units:
                           1         2         3
     Eigenvalues --  1513.440544228.573414980.40149
           X            0.99968  -0.02506   0.00188
           Y            0.02508   0.99958  -0.01466
           Z           -0.00151   0.01470   0.99989
 This molecule is an asymmetric top.
 Rotational symmetry number  1.
 Warning -- assumption of classical behavior for rotation
           may cause significant error
 Rotational temperatures (Kelvin)      0.05723     0.02048     0.01739
 Rotational constants (GHZ):           1.19248     0.42680     0.36237
 Zero-point vibrational energy     564767.5 (Joules/Mol)
                                  134.98268 (Kcal/Mol)
 Warning -- explicit consideration of  21 degrees of freedom as
           vibrations may cause significant error
 Vibrational temperatures:     62.70    78.92   132.81   177.05   262.67
          (Kelvin)            274.89   311.15   355.81   405.52   466.36
                              489.91   535.93   569.37   623.39   649.91
                              668.56   680.88   730.31   751.30   829.05
                              863.03   903.65   938.66  1017.56  1054.82
                             1106.25  1158.47  1205.78  1229.47  1266.18
                             1293.78  1368.16  1384.76  1406.93  1505.66
                             1592.64  1639.90  1661.14  1689.89  1724.86
                             1760.65  1779.15  1822.14  1873.11  1894.34
                             1918.66  1938.56  1981.63  2012.58  2044.08
                             2076.36  2151.47  2196.37  2273.76  2286.05
                             2395.84  2406.13  2447.23  2472.21  2671.93
                             4460.08  4523.87  4561.53  4618.90  4631.98
                             4664.78  4846.00  4937.67  4962.37  5321.38
                             5419.77  5433.21

 Zero-point correction=                           0.215109 (Hartree/Particle)
 Thermal correction to Energy=                    0.228193
 Thermal correction to Enthalpy=                  0.229137
 Thermal correction to Gibbs Free Energy=         0.175442
 Sum of electronic and zero-point Energies=           -705.483826
 Sum of electronic and thermal Energies=              -705.470741
 Sum of electronic and thermal Enthalpies=            -705.469797
 Sum of electronic and thermal Free Energies=         -705.523492

                     E (Thermal)             CV                S
                      KCal/Mol        Cal/Mol-Kelvin    Cal/Mol-Kelvin
 Total                  143.193             50.682            113.011
 Electronic               0.000              0.000              0.000
 Translational            0.889              2.981             41.755
 Rotational               0.889              2.981             31.833
 Vibrational            141.416             44.721             39.423
 Vibration     1          0.595              1.980              5.089
 Vibration     2          0.596              1.976              4.634
 Vibration     3          0.602              1.955              3.611
 Vibration     4          0.610              1.930              3.052
 Vibration     5          0.630              1.864              2.302
 Vibration     6          0.634              1.852              2.218
 Vibration     7          0.645              1.816              1.990
 Vibration     8          0.661              1.767              1.750
 Vibration     9          0.681              1.707              1.522
 Vibration    10          0.709              1.627              1.289
 Vibration    11          0.720              1.595              1.210
 Vibration    12          0.744              1.529              1.070
 Vibration    13          0.762              1.479              0.978
 Vibration    14          0.794              1.398              0.848
 Vibration    15          0.810              1.357              0.791
 Vibration    16          0.822              1.328              0.753
 Vibration    17          0.830              1.309              0.729
 Vibration    18          0.863              1.233              0.639
 Vibration    19          0.877              1.201              0.605
 Vibration    20          0.933              1.083              0.492
 Vibration    21          0.958              1.032              0.450

 Optimization completed.
    -- Stationary point found.
 Normal termination of Gaussian 16 at Sun Jul 18 15:50:02 2021.

 ----------------------------------------------------------------------
 #p b3lyp/6-31G(d) scrf=(iefpcm,read,solvent=n-octanol) geom=allcheck g
 uess=read
 ----------------------------------------------------------------------

 Structure from the checkpoint file:  "SET_328_BBB292_conf1.geo_090_300_120.chk"
 ---------------------------------------------
 SET_328_BBB292_conf1.geo_090_300_120 geometry
 ---------------------------------------------
 Charge =  1 Multiplicity = 1

 SCF Done:  E(RB3LYP) =  -705.701146617     A.U. after    1 cycles
 Normal termination of Gaussian 16 at Sun Jul 18 15:50:24 2021.

 -----------------------------
 #p B3LYP/6-31G* geom=allcheck
 -----------------------------

 Structure from the checkpoint file:  "SET_328_BBB292_conf1.geo_090_300_120.chk"
 ---------------------------------------------
 SET_328_BBB292_conf1.geo_090_300_120 geometry
 ---------------------------------------------
 Charge =  1 Multiplicity = 1

 SCF Done:  E(RB3LYP) =  -705.559061936     A.U. after   15 cycles
 Normal termination of Gaussian 16 at Sun Jul 18 15:51:46 2021.
 Gaussian 16:  ES64L-G16RevA.03 25-Dec-2016

 --------------------------------------------------------
 #p mp2/aug-cc-pVDZ scf=tight maxdisk=180GB geom=allcheck
 --------------------------------------------------------

 Structure from the checkpoint file:  "SET_328_BBB292_conf1.geo_090_300_120.chk"
 ---------------------------------------------
 SET_328_BBB292_conf1.geo_090_300_120 geometry
 ---------------------------------------------
 Charge =  1 Multiplicity = 1

                         Standard orientation:
 ---------------------------------------------------------------------
 Center     Atomic      Atomic             Coordinates (Angstroms)
 Number     Number       Type             X           Y           Z
 ---------------------------------------------------------------------
      1          7           0        2.402238   -1.539543    0.960308
      2          1           0        2.547648   -2.511312    0.642344
      3          1           0        3.127430   -1.367088    1.672871
      4          6           0        2.490400   -0.583791   -0.201355
      5          6           0        2.522122    0.899327    0.193296
      6          8           0        2.005989    1.307512    1.362786
      7          1           0        1.587485    0.600748    1.880445
      8          8           0        2.979705    1.697458   -0.587582
      9          1           0        3.455210   -0.780978   -0.665498
     10          6           0        1.373338   -0.851617   -1.237941
     11          1           0        1.494881   -1.873377   -1.609422
     12          1           0        1.592556   -0.185830   -2.076484
     13          6           0       -0.038555   -0.650423   -0.736479
     14          6           0       -0.606290    0.634934   -0.669630
     15          1           0       -0.041002    1.503272   -0.994365
     16          6           0       -1.906765    0.801460   -0.213182
     17          8           0       -2.563892    1.995180   -0.112882
     18          1           0       -2.008607    2.725405   -0.428895
     19          6           0       -2.672751   -0.312124    0.187763
     20          8           0       -3.944825   -0.132282    0.630382
     21          1           0       -4.137867    0.820706    0.578996
     22          6           0       -2.119551   -1.584068    0.113785
     23          1           0       -2.720732   -2.435482    0.407770
     24          6           0       -0.811602   -1.748987   -0.350177
     25          1           0       -0.399903   -2.749006   -0.430690
     26          1           0        1.489346   -1.541463    1.442667
 ---------------------------------------------------------------------

 SCF Done:  E(RHF) =  -701.567736369     A.U. after   17 cycles
 E2 =    -0.2204018897D+01 EUMP2 =    -0.70377175526543D+03

 The electronic state is 1-A.
 Alpha  occ. eigenvalues --  -20.79439 -20.72927 -20.71916 -20.70582 -15.92012
 Alpha  occ. eigenvalues --  -11.56892 -11.50959 -11.43827 -11.43126 -11.42248
 Alpha  occ. eigenvalues --  -11.39192 -11.37991 -11.37983 -11.36721  -1.63404
 Alpha  occ. eigenvalues --   -1.54633  -1.53141  -1.52827  -1.50680  -1.29769
 Alpha  occ. eigenvalues --   -1.24411  -1.15857  -1.14774  -1.07343  -1.01062
 Alpha  occ. eigenvalues --   -0.99387  -0.99021  -0.97667  -0.94071  -0.91891
 Alpha  occ. eigenvalues --   -0.86944  -0.86233  -0.83913  -0.81055  -0.80811
 Alpha  occ. eigenvalues --   -0.79486  -0.76183  -0.75340  -0.74017  -0.73303
 Alpha  occ. eigenvalues --   -0.72951  -0.71652  -0.70449  -0.68129  -0.67144
 Alpha  occ. eigenvalues --   -0.65272  -0.63700  -0.62432  -0.61605  -0.60124
 Alpha  occ. eigenvalues --   -0.46592  -0.43351
 Alpha virt. eigenvalues --   -0.12112  -0.08501  -0.07503  -0.06268  -0.04556
 Alpha virt. eigenvalues --   -0.04198  -0.03692  -0.03631  -0.03193  -0.02240
 Alpha virt. eigenvalues --   -0.01460  -0.01076  -0.00622  -0.00415  -0.00216

 Mulliken charges:
               1
     1  N   -0.646364
     2  H    0.215196
     3  H    0.222389
     4  C    0.591499
     5  C    1.282976
     6  O   -0.684099
     7  H    0.196252
     8  O   -0.781831
     9  H   -0.067062
    10  C    0.321567
    11  H   -0.209333
    12  H   -0.040774
    13  C    0.556190
    14  C    0.787577
    15  H   -0.757063
    16  C    0.316383
    17  O   -0.957726
    18  H    0.232934
    19  C    0.582712
    20  O   -0.919555
    21  H    0.215448
    22  C    0.676189
    23  H   -0.504031
    24  C    0.860998
    25  H   -0.744174
    26  H    0.253701
 Sum of Mulliken charges =   1.00000

 Dipole moment (field-independent basis, Debye):
    X=              8.4165    Y=             -7.1515    Z=              3.6070  Tot=             11.6186
 Quadrupole moment (field-independent basis, Debye-Ang):
   XX=            -57.4584   YY=            -61.8813   ZZ=            -72.2642
   XY=            -29.4389   XZ=             12.0295   YZ=             -6.9816

 Normal termination of Gaussian 16 at Sun Jul 18 16:17:26 2021.
