 Gaussian 16, Revision A.03,

 ---------------------------------------------------------------
 #p b3lyp/6-31G(d) opt freq scrf=(iefpcm,read,solvent=n-octanol)
 ---------------------------------------------------------------

 --------------------------------------------
 SET_328_BBB29_conf1.geo_135_285_180 geometry
 --------------------------------------------
 Symbolic Z-matrix:
 Charge =  1 Multiplicity = 1

 SCF Done:  E(RB3LYP) =  -1548.95547941     A.U. after   14 cycles
 SCF Done:  E(RB3LYP) =  -1548.98702281     A.U. after   12 cycles
 SCF Done:  E(RB3LYP) =  -1548.97289400     A.U. after   12 cycles
 SCF Done:  E(RB3LYP) =  -1549.00101271     A.U. after   11 cycles
 SCF Done:  E(RB3LYP) =  -1549.00192206     A.U. after   11 cycles
 SCF Done:  E(RB3LYP) =  -1549.00286003     A.U. after   11 cycles
 SCF Done:  E(RB3LYP) =  -1549.00333261     A.U. after   11 cycles
 SCF Done:  E(RB3LYP) =  -1549.00287719     A.U. after   12 cycles
 SCF Done:  E(RB3LYP) =  -1549.00450823     A.U. after   10 cycles
 SCF Done:  E(RB3LYP) =  -1549.00189713     A.U. after   13 cycles
 SCF Done:  E(RB3LYP) =  -1549.00514017     A.U. after    7 cycles
 SCF Done:  E(RB3LYP) =  -1549.00514483     A.U. after    8 cycles
 SCF Done:  E(RB3LYP) =  -1549.00513945     A.U. after    8 cycles
 SCF Done:  E(RB3LYP) =  -1549.00514219     A.U. after    6 cycles
 SCF Done:  E(RB3LYP) =  -1549.00514492     A.U. after    8 cycles
 SCF Done:  E(RB3LYP) =  -1549.00514125     A.U. after    8 cycles
 Optimization completed.
    -- Stationary point found.
 Normal termination of Gaussian 16 at Sun Jul 18 18:10:39 2021.

 --------------------------------------------------------------------
 #P Geom=AllCheck Guess=TCheck SCRF=Check GenChk RB3LYP/6-31G(d) Freq
 --------------------------------------------------------------------

 Structure from the checkpoint file:  "SET_328_BBB29_conf1.geo_135_285_180.chk"
 --------------------------------------------
 SET_328_BBB29_conf1.geo_135_285_180 geometry
 --------------------------------------------
 Charge =  1 Multiplicity = 1

 SCF Done:  E(RB3LYP) =  -1549.00514125     A.U. after    1 cycles

  Exact polarizability: 324.269 -37.455 214.608 -27.754 -49.440 193.005
 Approx polarizability: 373.919 -45.424 274.202 -32.425 -77.043 261.076

                      1                      2                      3
                      A                      A                      A
 Frequencies --     46.8480                59.6488                68.8913
 Red. masses --      7.7180                 4.1625                 4.8495
 Frc consts  --      0.0100                 0.0087                 0.0136
 IR Inten    --      2.2474                17.7984                15.3379

                      4                      5                      6
                      A                      A                      A
 Frequencies --     95.9934               129.5733               137.6647
 Red. masses --      5.9268                 3.5147                 6.0301
 Frc consts  --      0.0322                 0.0348                 0.0673
 IR Inten    --      0.3479                13.6917                 3.6689

                      7                      8                      9
                      A                      A                      A
 Frequencies --    166.6263               197.5465               213.1104
 Red. masses --      4.3203                 2.2503                 4.4820
 Frc consts  --      0.0707                 0.0517                 0.1199
 IR Inten    --      4.4206                 4.2250                 6.9367

                     10                     11                     12
                      A                      A                      A
 Frequencies --    244.3489               277.0069               287.9769
 Red. masses --      3.5715                 6.0089                 6.4712
 Frc consts  --      0.1256                 0.2717                 0.3162
 IR Inten    --      1.8112                 6.4225                 1.4710

                     13                     14                     15
                      A                      A                      A
 Frequencies --    317.9224               330.4636               344.1742
 Red. masses --      5.5043                 3.2512                 3.0949
 Frc consts  --      0.3278                 0.2092                 0.2160
 IR Inten    --      0.3985                 5.2690                 4.3022

                     16                     17                     18
                      A                      A                      A
 Frequencies --    371.6562               376.8928               390.5237
 Red. masses --      6.4382                 1.1483                 4.8072
 Frc consts  --      0.5240                 0.0961                 0.4319
 IR Inten    --     12.6367                 0.2385                 5.4420

                     19                     20                     21
                      A                      A                      A
 Frequencies --    433.8958               448.3207               457.7066
 Red. masses --      4.3226                 4.2482                 3.7348
 Frc consts  --      0.4795                 0.5031                 0.4610
 IR Inten    --      4.1156                 5.8020                 4.2875

                     22                     23                     24
                      A                      A                      A
 Frequencies --    488.5695               523.3614               538.5649
 Red. masses --      4.4264                 5.7782                 3.5991
 Frc consts  --      0.6225                 0.9325                 0.6151
 IR Inten    --      4.6572                17.5166                 2.4684

                     25                     26                     27
                      A                      A                      A
 Frequencies --    550.2833               591.8498               615.5070
 Red. masses --      4.2471                 6.5869                 4.8461
 Frc consts  --      0.7577                 1.3594                 1.0817
 IR Inten    --      1.3212                 7.6372                 8.5437

                     28                     29                     30
                      A                      A                      A
 Frequencies --    635.9030               690.8409               713.0664
 Red. masses --      5.2969                 5.9331                 5.1517
 Frc consts  --      1.2620                 1.6683                 1.5433
 IR Inten    --      2.1321                 6.6412                 0.6845

                     31                     32                     33
                      A                      A                      A
 Frequencies --    735.1686               747.2089               767.6371
 Red. masses --      5.1953                 3.1195                 1.3703
 Frc consts  --      1.6544                 1.0262                 0.4757
 IR Inten    --      3.5154                 4.7337                77.1267

                     34                     35                     36
                      A                      A                      A
 Frequencies --    783.4930               808.0315               815.4689
 Red. masses --      2.4825                 1.8064                 1.3574
 Frc consts  --      0.8979                 0.6949                 0.5318
 IR Inten    --      1.5868                14.5434                35.1236

                     37                     38                     39
                      A                      A                      A
 Frequencies --    865.1577               872.5631               874.4756
 Red. masses --      1.7147                 1.3985                 1.5381
 Frc consts  --      0.7562                 0.6273                 0.6930
 IR Inten    --     11.7081                 0.6574                26.0910

                     40                     41                     42
                      A                      A                      A
 Frequencies --    933.7927               945.0344               945.7227
 Red. masses --      3.1830                 1.3392                 1.3155
 Frc consts  --      1.6352                 0.7047                 0.6932
 IR Inten    --    124.6408                 3.2283                 1.5577

                     43                     44                     45
                      A                      A                      A
 Frequencies --    974.8065               986.4135               996.4725
 Red. masses --      1.7396                 1.2600                 2.9546
 Frc consts  --      0.9739                 0.7223                 1.7285
 IR Inten    --     11.8516                 0.4549                18.7063

                     46                     47                     48
                      A                      A                      A
 Frequencies --   1022.2335              1053.1632              1067.2067
 Red. masses --      1.4982                 2.3880                 5.5934
 Frc consts  --      0.9224                 1.5606                 3.7534
 IR Inten    --     14.1796                 5.6941                31.8950

                     49                     50                     51
                      A                      A                      A
 Frequencies --   1076.3239              1081.5697              1124.4667
 Red. masses --      3.7129                 2.1696                 1.9907
 Frc consts  --      2.5343                 1.4953                 1.4830
 IR Inten    --      8.8257                 2.0126                61.3284

                     52                     53                     54
                      A                      A                      A
 Frequencies --   1129.8398              1157.7093              1168.2303
 Red. masses --      4.2809                 1.5217                 1.6360
 Frc consts  --      3.2197                 1.2016                 1.3155
 IR Inten    --     15.2285                26.3670                22.6912

                     55                     56                     57
                      A                      A                      A
 Frequencies --   1170.7925              1184.9529              1198.5318
 Red. masses --      1.5045                 1.6163                 1.1573
 Frc consts  --      1.2150                 1.3371                 0.9795
 IR Inten    --     30.8350                21.9536                 1.9496

                     58                     59                     60
                      A                      A                      A
 Frequencies --   1261.8076              1286.7486              1309.1478
 Red. masses --      1.8877                 2.3851                 1.3805
 Frc consts  --      1.7708                 2.3267                 1.3940
 IR Inten    --    119.9264               121.0838                50.9587

                     61                     62                     63
                      A                      A                      A
 Frequencies --   1312.3545              1336.2951              1337.2150
 Red. masses --      1.6839                 2.8165                 1.7938
 Frc consts  --      1.7087                 2.9632                 1.8899
 IR Inten    --     15.6106                53.0958                12.1659

                     64                     65                     66
                      A                      A                      A
 Frequencies --   1348.1502              1361.5662              1368.1450
 Red. masses --      3.5200                 3.3169                 1.1949
 Frc consts  --      3.7693                 3.6229                 1.3178
 IR Inten    --     15.2103                22.6369                14.4600

                     67                     68                     69
                      A                      A                      A
 Frequencies --   1384.6258              1434.0021              1446.2185
 Red. masses --      1.2569                 2.1095                 1.5943
 Frc consts  --      1.4197                 2.5558                 1.9647
 IR Inten    --     25.0552                40.5017                25.5861

                     70                     71                     72
                      A                      A                      A
 Frequencies --   1456.9135              1491.2023              1502.6830
 Red. masses --      1.5614                 2.2108                 2.2817
 Frc consts  --      1.9527                 2.8965                 3.0356
 IR Inten    --     44.0413                 3.9821               405.8895

                     73                     74                     75
                      A                      A                      A
 Frequencies --   1517.0176              1533.3911              1542.0421
 Red. masses --      1.1155                 2.6217                 1.0848
 Frc consts  --      1.5125                 3.6319                 1.5199
 IR Inten    --      8.7999                22.1767                11.6123

                     76                     77                     78
                      A                      A                      A
 Frequencies --   1549.5006              1578.4908              1614.9992
 Red. masses --      1.1130                 1.1544                 6.6888
 Frc consts  --      1.5744                 1.6947                10.2789
 IR Inten    --      4.5211               197.3781                30.1499

                     79                     80                     81
                      A                      A                      A
 Frequencies --   1626.3304              1634.3159              1652.0415
 Red. masses --      6.1516                 6.0476                 6.3994
 Frc consts  --      9.5863                 9.5172                10.2904
 IR Inten    --     87.9310                 6.4595                35.3453

                     82                     83                     84
                      A                      A                      A
 Frequencies --   1668.5844              1685.4801              3056.7433
 Red. masses --      1.0379                 1.0386                 1.0717
 Frc consts  --      1.7025                 1.7384                 5.9001
 IR Inten    --     86.5542                72.3322                49.0594

                     85                     86                     87
                      A                      A                      A
 Frequencies --   3090.8307              3131.6903              3137.0425
 Red. masses --      1.0599                 1.0982                 1.0660
 Frc consts  --      5.9660                 6.3456                 6.1809
 IR Inten    --     25.1471                11.2955                 9.4748

                     88                     89                     90
                      A                      A                      A
 Frequencies --   3158.4238              3197.0896              3213.5935
 Red. masses --      1.0920                 1.1101                 1.0869
 Frc consts  --      6.4183                 6.6853                 6.6134
 IR Inten    --     23.5529                11.8243                 1.1812

                     91                     92                     93
                      A                      A                      A
 Frequencies --   3220.7260              3233.9055              3235.4989
 Red. masses --      1.0894                 1.0929                 1.0889
 Frc consts  --      6.6582                 6.7342                 6.7163
 IR Inten    --      8.6315                31.9875                 3.8243

                     94                     95                     96
                      A                      A                      A
 Frequencies --   3241.2714              3252.5330              3259.4630
 Red. masses --      1.0951                 1.0949                 1.0906
 Frc consts  --      6.7786                 6.8243                 6.8266
 IR Inten    --     20.9518                 4.2667                 1.6085

                     97                     98                     99
                      A                      A                      A
 Frequencies --   3429.9113              3492.3961              3535.6770
 Red. masses --      1.0361                 1.0923                 1.0892
 Frc consts  --      7.1813                 7.8496                 8.0225
 IR Inten    --    116.9823               190.9232               168.1308

 - Thermochemistry -
 -------------------
 Temperature   298.150 Kelvin.  Pressure   1.00000 Atm.
 Atom     1 has atomic number  7 and mass  14.00307

 Molecular mass:   291.07227 amu.
 Principal axes and moments of inertia in atomic units:
                           1         2         3
     Eigenvalues --  4364.150768342.79886**********
           X            0.99936   0.03464  -0.00837
           Y           -0.03445   0.99915   0.02260
           Z            0.00914  -0.02229   0.99971
 This molecule is an asymmetric top.
 Rotational symmetry number  1.
 Warning -- assumption of classical behavior for rotation
           may cause significant error
 Rotational temperatures (Kelvin)      0.01985     0.01038     0.00853
 Rotational constants (GHZ):           0.41354     0.21632     0.17767
 Zero-point vibrational energy     761765.6 (Joules/Mol)
                                  182.06636 (Kcal/Mol)
 Warning -- explicit consideration of  27 degrees of freedom as
           vibrations may cause significant error
 Vibrational temperatures:     67.40    85.82    99.12   138.11   186.43
          (Kelvin)            198.07   239.74   284.23   306.62   351.56
                              398.55   414.33   457.42   475.46   495.19
                              534.73   542.26   561.88   624.28   645.03
                              658.54   702.94   753.00   774.87   791.73
                              851.54   885.58   914.92   993.97  1025.94
                             1057.74  1075.07  1104.46  1127.27  1162.58
                             1173.28  1244.77  1255.42  1258.18  1343.52
                             1359.69  1360.68  1402.53  1419.23  1433.70
                             1470.77  1515.27  1535.47  1548.59  1556.14
                             1617.86  1625.59  1665.69  1680.82  1684.51
                             1704.88  1724.42  1815.46  1851.34  1883.57
                             1888.19  1922.63  1923.95  1939.69  1958.99
                             1968.46  1992.17  2063.21  2080.79  2096.17
                             2145.51  2162.03  2182.65  2206.21  2218.65
                             2229.39  2271.10  2323.62  2339.93  2351.42
                             2376.92  2400.72  2425.03  4397.97  4447.02
                             4505.80  4513.50  4544.27  4599.90  4623.64
                             4633.91  4652.87  4655.16  4663.47  4679.67
                             4689.64  4934.88  5024.78  5087.05

 Zero-point correction=                           0.290141 (Hartree/Particle)
 Thermal correction to Energy=                    0.306460
 Thermal correction to Enthalpy=                  0.307404
 Thermal correction to Gibbs Free Energy=         0.246228
 Sum of electronic and zero-point Energies=          -1548.715000
 Sum of electronic and thermal Energies=             -1548.698681
 Sum of electronic and thermal Enthalpies=           -1548.697737
 Sum of electronic and thermal Free Energies=        -1548.758913

                     E (Thermal)             CV                S
                      KCal/Mol        Cal/Mol-Kelvin    Cal/Mol-Kelvin
 Total                  192.306             65.181            128.755
 Electronic               0.000              0.000              0.000
 Translational            0.889              2.981             42.903
 Rotational               0.889              2.981             34.269
 Vibrational            190.529             59.220             51.584
 Vibration     1          0.595              1.979              4.946
 Vibration     2          0.597              1.974              4.469
 Vibration     3          0.598              1.969              4.185
 Vibration     4          0.603              1.952              3.534
 Vibration     5          0.612              1.924              2.952
 Vibration     6          0.614              1.916              2.836
 Vibration     7          0.624              1.884              2.473
 Vibration     8          0.637              1.843              2.156
 Vibration     9          0.644              1.821              2.017
 Vibration    10          0.660              1.772              1.771
 Vibration    11          0.678              1.716              1.552
 Vibration    12          0.685              1.696              1.486
 Vibration    13          0.704              1.639              1.321
 Vibration    14          0.713              1.615              1.258
 Vibration    15          0.723              1.587              1.193
 Vibration    16          0.743              1.530              1.073
 Vibration    17          0.747              1.519              1.052
 Vibration    18          0.758              1.490              0.998
 Vibration    19          0.795              1.396              0.846
 Vibration    20          0.807              1.365              0.801
 Vibration    21          0.816              1.344              0.773
 Vibration    22          0.844              1.275              0.687
 Vibration    23          0.878              1.198              0.602
 Vibration    24          0.894              1.165              0.568
 Vibration    25          0.906              1.139              0.544
 Vibration    26          0.949              1.049              0.464
 Vibration    27          0.975              0.999              0.424

 Optimization completed.
    -- Stationary point found.
 Normal termination of Gaussian 16 at Sun Jul 18 18:52:58 2021.

 ----------------------------------------------------------------------
 #p b3lyp/6-31G(d) scrf=(iefpcm,read,solvent=n-octanol) geom=allcheck g
 uess=read
 ----------------------------------------------------------------------

 Structure from the checkpoint file:  "SET_328_BBB29_conf1.geo_135_285_180.chk"
 --------------------------------------------
 SET_328_BBB29_conf1.geo_135_285_180 geometry
 --------------------------------------------
 Charge =  1 Multiplicity = 1

 SCF Done:  E(RB3LYP) =  -1549.00795702     A.U. after    1 cycles
 Normal termination of Gaussian 16 at Sun Jul 18 18:53:51 2021.

 -----------------------------
 #p B3LYP/6-31G* geom=allcheck
 -----------------------------

 Structure from the checkpoint file:  "SET_328_BBB29_conf1.geo_135_285_180.chk"
 --------------------------------------------
 SET_328_BBB29_conf1.geo_135_285_180 geometry
 --------------------------------------------
 Charge =  1 Multiplicity = 1

 SCF Done:  E(RB3LYP) =  -1548.87968085     A.U. after   15 cycles
 Normal termination of Gaussian 16 at Sun Jul 18 18:56:35 2021.
 Gaussian 16:  ES64L-G16RevA.03 25-Dec-2016

 --------------------------------------------------------
 #p mp2/aug-cc-pVDZ scf=tight maxdisk=180GB geom=allcheck
 --------------------------------------------------------

 Structure from the checkpoint file:  "SET_328_BBB29_conf1.geo_135_285_180.chk"
 --------------------------------------------
 SET_328_BBB29_conf1.geo_135_285_180 geometry
 --------------------------------------------
 Charge =  1 Multiplicity = 1

                         Standard orientation:
 ---------------------------------------------------------------------
 Center     Atomic      Atomic             Coordinates (Angstroms)
 Number     Number       Type             X           Y           Z
 ---------------------------------------------------------------------
      1          7           0        2.836253    3.447916    1.595958
      2          1           0        2.737441    3.668153    2.595921
      3          1           0        3.089425    4.325109    1.121500
      4          6           0        1.581997    2.838946    1.035198
      5          1           0        0.772895    3.538984    1.245304
      6          1           0        1.401680    1.919909    1.590289
      7          6           0        1.709480    2.557854   -0.455213
      8          1           0        2.613081    1.976698   -0.653317
      9          1           0        1.793219    3.495018   -1.014319
     10          6           0        0.488034    1.791995   -0.978932
     11          1           0        0.528713    1.738629   -2.073605
     12          1           0       -0.413541    2.348753   -0.724545
     13          7           0        0.369087    0.468200   -0.366567
     14          6           0       -0.914611   -0.025592   -0.034407
     15          6           0       -2.084360    0.494488   -0.603074
     16          1           0       -2.042621    1.268599   -1.356628
     17          6           0       -3.323927    0.001007   -0.201875
     18         17           0       -4.773925    0.695987   -0.913138
     19          6           0       -3.443675   -1.031583    0.721454
     20          1           0       -4.417521   -1.403470    1.012206
     21          6           0       -2.275426   -1.580092    1.249969
     22          1           0       -2.335182   -2.396916    1.958564
     23          6           0       -1.026387   -1.076881    0.894758
     24         16           0        0.448213   -1.704517    1.664937
     25          6           0        1.534043   -1.582799    0.256820
     26          6           0        1.398568   -0.481395   -0.605953
     27          6           0        2.290652   -0.358289   -1.678932
     28          1           0        2.194485    0.471984   -2.367477
     29          6           0        3.305588   -1.297050   -1.868644
     30          1           0        3.990789   -1.174609   -2.699942
     31          6           0        3.429474   -2.388646   -1.011320
     32          1           0        4.212769   -3.122091   -1.162666
     33          6           0        2.527932   -2.537744    0.044115
     34          1           0        2.597986   -3.388026    0.714052
     35          1           0        3.640041    2.815636    1.509503
 ---------------------------------------------------------------------

 SCF Done:  E(RHF) =  -1543.12741092     A.U. after   18 cycles
 E2 =    -0.2704162422D+01 EUMP2 =    -0.15458315733429D+04

 The electronic state is 1-A.
 Alpha  occ. eigenvalues -- -104.91744 -92.06643 -15.89617 -15.71039 -11.47146
 Alpha  occ. eigenvalues --  -11.41153 -11.40224 -11.40087 -11.39972 -11.39793
 Alpha  occ. eigenvalues --  -11.37290 -11.36979 -11.34858 -11.34775 -11.34730
 Alpha  occ. eigenvalues --  -11.34725 -11.34541 -11.33781 -11.33706 -10.64300
 Alpha  occ. eigenvalues --   -9.06766  -8.11079  -8.10743  -8.10730  -6.74966
 Alpha  occ. eigenvalues --   -6.74838  -6.74623  -1.50590  -1.40050  -1.27907
 Alpha  occ. eigenvalues --   -1.26103  -1.23144  -1.20956  -1.16226  -1.13654
 Alpha  occ. eigenvalues --   -1.11853  -1.10146  -1.08489  -1.01997  -1.00040
 Alpha  occ. eigenvalues --   -0.96355  -0.95174  -0.94753  -0.92579  -0.91210
 Alpha  occ. eigenvalues --   -0.87074  -0.85159  -0.82214  -0.81359  -0.78262
 Alpha  occ. eigenvalues --   -0.76096  -0.75806  -0.75063  -0.73276  -0.72574
 Alpha  occ. eigenvalues --   -0.71616  -0.70134  -0.69407  -0.67434  -0.67036
 Alpha  occ. eigenvalues --   -0.66101  -0.64527  -0.63789  -0.62398  -0.62050
 Alpha  occ. eigenvalues --   -0.61349  -0.58703  -0.57455  -0.55137  -0.53878
 Alpha  occ. eigenvalues --   -0.53386  -0.50210  -0.44478  -0.43179  -0.41606
 Alpha  occ. eigenvalues --   -0.37973
 Alpha virt. eigenvalues --   -0.11069  -0.07399  -0.07361  -0.05687  -0.04180
 Alpha virt. eigenvalues --   -0.03573  -0.03310  -0.02676  -0.02381  -0.01822
 Alpha virt. eigenvalues --   -0.01338  -0.01079  -0.00842  -0.00134   0.00108

 Mulliken charges:
               1
     1  N   -0.604592
     2  H    0.175840
     3  H    0.245944
     4  C    1.205880
     5  H   -0.128023
     6  H   -0.170976
     7  C    0.417995
     8  H   -0.181664
     9  H   -0.138548
    10  C    0.673640
    11  H   -0.183067
    12  H   -0.519205
    13  N   -0.049437
    14  C   -1.066222
    15  C    1.548254
    16  H   -0.637920
    17  C   -0.629395
    18  Cl  -0.342112
    19  C    0.756824
    20  H   -0.431220
    21  C    0.715638
    22  H   -0.543767
    23  C    0.380077
    24  S    0.235819
    25  C    0.359781
    26  C   -0.387067
    27  C    1.069283
    28  H   -0.795894
    29  C    0.273991
    30  H   -0.504531
    31  C    0.714623
    32  H   -0.436706
    33  C    0.244590
    34  H   -0.496059
    35  H    0.228226
 Sum of Mulliken charges =   1.00000

 Dipole moment (field-independent basis, Debye):
    X=             12.6258    Y=             13.7409    Z=              4.8144  Tot=             19.2718
 Quadrupole moment (field-independent basis, Debye-Ang):
   XX=            -83.7026   YY=            -63.5109   ZZ=           -109.9694
   XY=             39.4992   XZ=              9.1251   YZ=             17.0275

 Normal termination of Gaussian 16 at Sun Jul 18 20:13:45 2021.
