 Gaussian 16, Revision A.03,

 ---------------------------------------------------------------
 #p b3lyp/6-31G(d) opt freq scrf=(iefpcm,read,solvent=n-octanol)
 ---------------------------------------------------------------

 ---------------------------------------------
 SET_328_BBB272_conf1.geo_165_045_180 geometry
 ---------------------------------------------
 Symbolic Z-matrix:
 Charge = -1 Multiplicity = 1

 SCF Done:  E(RB3LYP) =  -648.197673045     A.U. after   13 cycles
 SCF Done:  E(RB3LYP) =  -648.223725773     A.U. after   14 cycles
 SCF Done:  E(RB3LYP) =  -648.222071416     A.U. after   13 cycles
 SCF Done:  E(RB3LYP) =  -648.231084116     A.U. after   12 cycles
 SCF Done:  E(RB3LYP) =  -648.230482852     A.U. after   11 cycles
 SCF Done:  E(RB3LYP) =  -648.232334471     A.U. after   12 cycles
 SCF Done:  E(RB3LYP) =  -648.234318899     A.U. after   14 cycles
 SCF Done:  E(RB3LYP) =  -648.233471412     A.U. after   12 cycles
 SCF Done:  E(RB3LYP) =  -648.234386313     A.U. after   12 cycles
 SCF Done:  E(RB3LYP) =  -648.235466063     A.U. after   11 cycles
 SCF Done:  E(RB3LYP) =  -648.235600099     A.U. after   10 cycles
 SCF Done:  E(RB3LYP) =  -648.235628596     A.U. after   10 cycles
 SCF Done:  E(RB3LYP) =  -648.235614332     A.U. after   10 cycles
 SCF Done:  E(RB3LYP) =  -648.235631640     A.U. after    9 cycles
 SCF Done:  E(RB3LYP) =  -648.235633645     A.U. after    8 cycles
 SCF Done:  E(RB3LYP) =  -648.235636488     A.U. after    7 cycles
 Optimization completed.
    -- Stationary point found.
 Normal termination of Gaussian 16 at Sun Jul 18 14:15:33 2021.

 --------------------------------------------------------------------
 #P Geom=AllCheck Guess=TCheck SCRF=Check GenChk RB3LYP/6-31G(d) Freq
 --------------------------------------------------------------------

 Structure from the checkpoint file:  "SET_328_BBB272_conf1.geo_165_045_180.chk"
 ---------------------------------------------
 SET_328_BBB272_conf1.geo_165_045_180 geometry
 ---------------------------------------------
 Charge = -1 Multiplicity = 1

 SCF Done:  E(RB3LYP) =  -648.235636488     A.U. after    1 cycles

  Exact polarizability: 161.373  -4.541 139.954   9.861   5.294  67.273
 Approx polarizability: 196.569   0.065 179.237  15.726   7.604  96.226

                      1                      2                      3
                      A                      A                      A
 Frequencies --     49.5249               102.3229               113.2519
 Red. masses --     11.7420                 5.0171                 6.3549
 Frc consts  --      0.0170                 0.0309                 0.0480
 IR Inten    --      0.7772                 5.0152                 6.7547

                      4                      5                      6
                      A                      A                      A
 Frequencies --    124.3323               155.2123               172.6260
 Red. masses --      3.4337                 6.8978                 1.1511
 Frc consts  --      0.0313                 0.0979                 0.0202
 IR Inten    --     11.1340                 2.4488                 0.8000

                      7                      8                      9
                      A                      A                      A
 Frequencies --    225.9927               274.5545               321.5143
 Red. masses --      7.4282                 6.4045                 4.5821
 Frc consts  --      0.2235                 0.2844                 0.2791
 IR Inten    --      4.7380                 2.0317                 5.8929

                     10                     11                     12
                      A                      A                      A
 Frequencies --    362.9106               414.8926               452.4126
 Red. masses --      6.5206                 6.0246                 4.1198
 Frc consts  --      0.5060                 0.6110                 0.4968
 IR Inten    --      3.8016                10.6629                 2.4223

                     13                     14                     15
                      A                      A                      A
 Frequencies --    526.7221               542.4458               557.9913
 Red. masses --      4.4056                 4.6602                 4.9426
 Frc consts  --      0.7201                 0.8079                 0.9067
 IR Inten    --     10.4173                 7.2942                 4.9942

                     16                     17                     18
                      A                      A                      A
 Frequencies --    586.3723               660.5158               677.0004
 Red. masses --      3.5233                 5.9993                 6.0030
 Frc consts  --      0.7138                 1.5421                 1.6210
 IR Inten    --     22.4761                 7.1684                23.8483

                     19                     20                     21
                      A                      A                      A
 Frequencies --    708.5727               769.5546               811.2612
 Red. masses --      3.8304                 1.8075                 4.2608
 Frc consts  --      1.1331                 0.6307                 1.6522
 IR Inten    --     32.6896                41.8325                13.1865

                     22                     23                     24
                      A                      A                      A
 Frequencies --    813.1132               847.2499               894.6084
 Red. masses --      4.3850                 4.2773                 1.6652
 Frc consts  --      1.7081                 1.8090                 0.7852
 IR Inten    --     45.4940                42.0545                 3.1544

                     25                     26                     27
                      A                      A                      A
 Frequencies --    938.5809               964.9001               993.3647
 Red. masses --      4.6384                 1.4236                 1.2740
 Frc consts  --      2.4075                 0.7809                 0.7407
 IR Inten    --     24.6571                 7.5308                 1.6663

                     28                     29                     30
                      A                      A                      A
 Frequencies --   1035.6603              1059.7487              1071.2247
 Red. masses --      1.7747                 1.9904                 1.6884
 Frc consts  --      1.1216                 1.3170                 1.1415
 IR Inten    --     64.2047                16.1122                23.4068

                     31                     32                     33
                      A                      A                      A
 Frequencies --   1104.8907              1163.7114              1179.3318
 Red. masses --      2.8167                 1.7608                 1.2065
 Frc consts  --      2.0260                 1.4049                 0.9887
 IR Inten    --     49.2210                 5.5788                14.2625

                     34                     35                     36
                      A                      A                      A
 Frequencies --   1221.5366              1252.1831              1279.8004
 Red. masses --      3.5685                 3.2920                 1.7043
 Frc consts  --      3.1373                 3.0412                 1.6447
 IR Inten    --    306.4908               434.1528                 2.1381

                     37                     38                     39
                      A                      A                      A
 Frequencies --   1353.3814              1384.0759              1421.8306
 Red. masses --      9.5026                11.7045                 1.3467
 Frc consts  --     10.2549                13.2106                 1.6040
 IR Inten    --      2.6213               601.3483               109.1699

                     40                     41                     42
                      A                      A                      A
 Frequencies --   1487.1657              1497.9432              1513.7999
 Red. masses --      2.3091                 1.0518                 2.5685
 Frc consts  --      3.0089                 1.3905                 3.4679
 IR Inten    --      8.9120                12.6548                27.3023

                     43                     44                     45
                      A                      A                      A
 Frequencies --   1515.3636              1627.9492              1657.6783
 Red. masses --      1.0776                 6.4955                 6.5912
 Frc consts  --      1.4579                10.1424                10.6713
 IR Inten    --     11.2626                28.8317                35.8336

                     46                     47                     48
                      A                      A                      A
 Frequencies --   1687.3473              1832.8857              3095.0888
 Red. masses --     11.6047                11.4669                 1.0370
 Frc consts  --     19.4667                22.6969                 5.8532
 IR Inten    --    727.9261               323.5247                 5.5280

                     49                     50                     51
                      A                      A                      A
 Frequencies --   3168.4449              3198.2547              3199.7034
 Red. masses --      1.0982                 1.1053                 1.0864
 Frc consts  --      6.4956                 6.6610                 6.5535
 IR Inten    --      6.8512                15.9314                 7.9318

                     52                     53                     54
                      A                      A                      A
 Frequencies --   3209.8399              3227.3618              3232.8115
 Red. masses --      1.0900                 1.0934                 1.0937
 Frc consts  --      6.6165                 6.7100                 6.7347
 IR Inten    --     24.0507                27.6302                24.0808

 - Thermochemistry -
 -------------------
 Temperature   298.150 Kelvin.  Pressure   1.00000 Atm.
 Atom     1 has atomic number  6 and mass  12.00000

 Molecular mass:   179.03443 amu.
 Principal axes and moments of inertia in atomic units:
                           1         2         3
     Eigenvalues --  1568.801452387.581943594.36073
           X            0.99986  -0.01049   0.01318
           Y            0.01038   0.99991   0.00881
           Z           -0.01327  -0.00867   0.99987
 This molecule is an asymmetric top.
 Rotational symmetry number  1.
 Warning -- assumption of classical behavior for rotation
           may cause significant error
 Rotational temperatures (Kelvin)      0.05521     0.03628     0.02410
 Rotational constants (GHZ):           1.15039     0.75589     0.50210
 Zero-point vibrational energy     381254.7 (Joules/Mol)
                                   91.12207 (Kcal/Mol)
 Warning -- explicit consideration of  16 degrees of freedom as
           vibrations may cause significant error
 Vibrational temperatures:     71.26   147.22   162.94   178.89   223.32
          (Kelvin)            248.37   325.15   395.02   462.59   522.15
                              596.94   650.92   757.84   780.46   802.83
                              843.66   950.33   974.05  1019.48  1107.22
                             1167.22  1169.89  1219.00  1287.14  1350.41
                             1388.28  1429.23  1490.08  1524.74  1541.25
                             1589.69  1674.32  1696.80  1757.52  1801.61
                             1841.35  1947.21  1991.38  2045.70  2139.70
                             2155.21  2178.02  2180.27  2342.26  2385.03
                             2427.72  2637.11  4453.14  4558.69  4601.58
                             4603.66  4618.24  4643.45  4651.29

 Zero-point correction=                           0.145212 (Hartree/Particle)
 Thermal correction to Energy=                    0.156363
 Thermal correction to Enthalpy=                  0.157307
 Thermal correction to Gibbs Free Energy=         0.107638
 Sum of electronic and zero-point Energies=           -648.090424
 Sum of electronic and thermal Energies=              -648.079273
 Sum of electronic and thermal Enthalpies=            -648.078329
 Sum of electronic and thermal Free Energies=         -648.127998

                     E (Thermal)             CV                S
                      KCal/Mol        Cal/Mol-Kelvin    Cal/Mol-Kelvin
 Total                   98.119             41.436            104.538
 Electronic               0.000              0.000              0.000
 Translational            0.889              2.981             41.454
 Rotational               0.889              2.981             30.977
 Vibrational             96.342             35.474             32.107
 Vibration     1          0.595              1.978              4.836
 Vibration     2          0.604              1.947              3.410
 Vibration     3          0.607              1.938              3.212
 Vibration     4          0.610              1.929              3.032
 Vibration     5          0.620              1.897              2.607
 Vibration     6          0.626              1.876              2.407
 Vibration     7          0.650              1.801              1.911
 Vibration     8          0.677              1.720              1.567
 Vibration     9          0.707              1.632              1.302
 Vibration    10          0.737              1.549              1.110
 Vibration    11          0.778              1.438              0.909
 Vibration    12          0.811              1.356              0.789
 Vibration    13          0.882              1.191              0.595
 Vibration    14          0.898              1.156              0.560
 Vibration    15          0.914              1.122              0.528
 Vibration    16          0.943              1.061              0.474

                           ! Non-Optimized Parameters !
 Normal termination of Gaussian 16 at Sun Jul 18 14:26:59 2021.

 ----------------------------------------------------------------------
 #p b3lyp/6-31G(d) scrf=(iefpcm,read,solvent=n-octanol) geom=allcheck g
 uess=read
 ----------------------------------------------------------------------

 Structure from the checkpoint file:  "SET_328_BBB272_conf1.geo_165_045_180.chk"
 ---------------------------------------------
 SET_328_BBB272_conf1.geo_165_045_180 geometry
 ---------------------------------------------
 Charge = -1 Multiplicity = 1

 SCF Done:  E(RB3LYP) =  -648.235636488     A.U. after    2 cycles
 Normal termination of Gaussian 16 at Sun Jul 18 14:27:28 2021.

 -----------------------------
 #p B3LYP/6-31G* geom=allcheck
 -----------------------------

 Structure from the checkpoint file:  "SET_328_BBB272_conf1.geo_165_045_180.chk"
 ---------------------------------------------
 SET_328_BBB272_conf1.geo_165_045_180 geometry
 ---------------------------------------------
 Charge = -1 Multiplicity = 1

 SCF Done:  E(RB3LYP) =  -648.134069098     A.U. after   15 cycles
 Normal termination of Gaussian 16 at Sun Jul 18 14:28:41 2021.
 Gaussian 16:  ES64L-G16RevA.03 25-Dec-2016

 --------------------------------------------------------
 #p mp2/aug-cc-pVDZ scf=tight maxdisk=180GB geom=allcheck
 --------------------------------------------------------

 Structure from the checkpoint file:  "SET_328_BBB272_conf1.geo_165_045_180.chk"
 ---------------------------------------------
 SET_328_BBB272_conf1.geo_165_045_180 geometry
 ---------------------------------------------
 Charge = -1 Multiplicity = 1

                         Standard orientation:
 ---------------------------------------------------------------------
 Center     Atomic      Atomic             Coordinates (Angstroms)
 Number     Number       Type             X           Y           Z
 ---------------------------------------------------------------------
      1          6           0       -3.388677   -0.520742   -0.355817
      2          1           0       -3.567669   -1.284932   -1.116670
      3          1           0       -3.419908    0.453944   -0.846277
      4          1           0       -4.156142   -0.576623    0.415328
      5          6           0       -2.027227   -0.702205    0.259407
      6          8           0       -1.785640   -0.833745    1.436702
      7          8           0       -1.081639   -0.769505   -0.721135
      8          6           0        0.258256   -0.684714   -0.339938
      9          6           0        0.856323    0.553447   -0.065574
     10          6           0        0.120977    1.905049   -0.068675
     11          8           0       -1.139560    1.892138   -0.042046
     12          8           0        0.861189    2.925180   -0.090020
     13          6           0        2.230863    0.540095    0.210993
     14          1           0        2.698357    1.498355    0.407193
     15          6           0        2.975081   -0.637242    0.221859
     16          1           0        4.037209   -0.607693    0.443890
     17          6           0        2.351064   -1.852280   -0.065094
     18          1           0        2.917649   -2.776427   -0.071088
     19          6           0        0.987060   -1.871692   -0.349361
     20          1           0        0.473377   -2.797468   -0.587176
 ---------------------------------------------------------------------

 SCF Done:  E(RHF) =  -644.490773263     A.U. after   17 cycles
 E2 =    -0.2005326699D+01 EUMP2 =    -0.64649609996290D+03

 The electronic state is 1-A.
 Alpha  occ. eigenvalues --  -20.48805 -20.42861 -20.32595 -20.32436 -11.27115
 Alpha  occ. eigenvalues --  -11.18497 -11.17707 -11.13406 -11.13068 -11.12596
 Alpha  occ. eigenvalues --  -11.12364 -11.11567 -11.11134  -1.33954  -1.24116
 Alpha  occ. eigenvalues --   -1.19563  -1.09216  -1.03293  -0.92137  -0.90190
 Alpha  occ. eigenvalues --   -0.87598  -0.74029  -0.72082  -0.65748  -0.60215
 Alpha  occ. eigenvalues --   -0.57241  -0.55937  -0.54855  -0.52878  -0.49860
 Alpha  occ. eigenvalues --   -0.48272  -0.46589  -0.45936  -0.44761  -0.42521
 Alpha  occ. eigenvalues --   -0.41698  -0.40506  -0.39616  -0.37836  -0.36201
 Alpha  occ. eigenvalues --   -0.34163  -0.32371  -0.23601  -0.23385  -0.21695
 Alpha  occ. eigenvalues --   -0.21126  -0.20661
 Alpha virt. eigenvalues --    0.10897   0.11566   0.12207   0.13259   0.14194
 Alpha virt. eigenvalues --    0.15519   0.15959   0.18407   0.20036   0.20598
 Alpha virt. eigenvalues --    0.21199   0.21554   0.21848   0.22461   0.23017

 Mulliken charges:
               1
     1  C    0.248101
     2  H    0.009779
     3  H    0.073593
     4  H   -0.045572
     5  C    0.727182
     6  O   -0.800391
     7  O   -1.192921
     8  C    0.759348
     9  C    0.587907
    10  C    0.874405
    11  O   -0.952099
    12  O   -0.983931
    13  C    0.690752
    14  H   -0.620724
    15  C    0.458963
    16  H   -0.471211
    17  C    0.387521
    18  H   -0.460193
    19  C    0.316616
    20  H   -0.607126
 Sum of Mulliken charges =  -1.00000

 Dipole moment (field-independent basis, Debye):
    X=              0.3931    Y=             -9.0146    Z=             -1.7041  Tot=              9.1826
 Quadrupole moment (field-independent basis, Debye-Ang):
   XX=            -79.7273   YY=           -107.5446   ZZ=            -85.6487
   XY=             -0.8175   XZ=              5.9020   YZ=              3.6658

 Normal termination of Gaussian 16 at Sun Jul 18 14:40:04 2021.
