 Gaussian 16, Revision A.03,

 ---------------------------------------------------------------
 #p b3lyp/6-31G(d) opt freq scrf=(iefpcm,read,solvent=n-octanol)
 ---------------------------------------------------------------

 --------------------------------------------
 SET_328_BBB20_conf1.geo_105_285_180 geometry
 --------------------------------------------
 Symbolic Z-matrix:
 Charge =  1 Multiplicity = 1

 SCF Done:  E(RB3LYP) =  -769.795521906     A.U. after   13 cycles
 SCF Done:  E(RB3LYP) =  -769.822571461     A.U. after   11 cycles
 SCF Done:  E(RB3LYP) =  -769.818574319     A.U. after   12 cycles
 SCF Done:  E(RB3LYP) =  -769.836071403     A.U. after   11 cycles
 SCF Done:  E(RB3LYP) =  -769.836868327     A.U. after   10 cycles
 SCF Done:  E(RB3LYP) =  -769.836978784     A.U. after   10 cycles
 SCF Done:  E(RB3LYP) =  -769.836797642     A.U. after   11 cycles
 SCF Done:  E(RB3LYP) =  -769.837394915     A.U. after   10 cycles
 SCF Done:  E(RB3LYP) =  -769.837945761     A.U. after   10 cycles
 SCF Done:  E(RB3LYP) =  -769.838626950     A.U. after   11 cycles
 SCF Done:  E(RB3LYP) =  -769.840070329     A.U. after    9 cycles
 SCF Done:  E(RB3LYP) =  -769.840087497     A.U. after    8 cycles
 SCF Done:  E(RB3LYP) =  -769.840077808     A.U. after    8 cycles
 SCF Done:  E(RB3LYP) =  -769.840090170     A.U. after    8 cycles
 SCF Done:  E(RB3LYP) =  -769.840082747     A.U. after    7 cycles
 SCF Done:  E(RB3LYP) =  -769.840086556     A.U. after    7 cycles
 Optimization completed.
    -- Stationary point found.
 Normal termination of Gaussian 16 at Sun Jul 18 16:12:14 2021.

 --------------------------------------------------------------------
 #P Geom=AllCheck Guess=TCheck SCRF=Check GenChk RB3LYP/6-31G(d) Freq
 --------------------------------------------------------------------

 Structure from the checkpoint file:  "SET_328_BBB20_conf1.geo_105_285_180.chk"
 --------------------------------------------
 SET_328_BBB20_conf1.geo_105_285_180 geometry
 --------------------------------------------
 Charge =  1 Multiplicity = 1

 SCF Done:  E(RB3LYP) =  -769.840086556     A.U. after    1 cycles

  Exact polarizability: 256.538 -36.739 212.947 -19.675 -38.439 210.658
 Approx polarizability: 291.702 -42.031 262.658 -26.195 -55.836 277.134

                      1                      2                      3
                      A                      A                      A
 Frequencies --     35.4024                42.4640                78.7858
 Red. masses --      4.0451                 4.3169                 3.8203
 Frc consts  --      0.0030                 0.0046                 0.0140
 IR Inten    --     19.0321                 1.8522                18.8046

                      4                      5                      6
                      A                      A                      A
 Frequencies --     93.8943               134.0986               143.7883
 Red. masses --      3.6938                 3.7899                 2.8707
 Frc consts  --      0.0192                 0.0402                 0.0350
 IR Inten    --      1.5210                 8.6118                 2.5164

                      7                      8                      9
                      A                      A                      A
 Frequencies --    166.5363               169.4899               200.8251
 Red. masses --      1.9223                 2.9883                 2.6987
 Frc consts  --      0.0314                 0.0506                 0.0641
 IR Inten    --      5.2162                12.0692                 0.2362

                     10                     11                     12
                      A                      A                      A
 Frequencies --    249.5712               293.4793               306.3568
 Red. masses --      3.5474                 3.1028                 3.6831
 Frc consts  --      0.1302                 0.1575                 0.2037
 IR Inten    --      0.2793                 4.7439                 4.9025

                     13                     14                     15
                      A                      A                      A
 Frequencies --    318.3655               342.7824               348.2145
 Red. masses --      1.1618                 3.8657                 2.0461
 Frc consts  --      0.0694                 0.2676                 0.1462
 IR Inten    --      0.4445                 4.2750                 1.6148

                     16                     17                     18
                      A                      A                      A
 Frequencies --    362.1518               420.8002               439.3230
 Red. masses --      3.7564                 4.7219                 2.9181
 Frc consts  --      0.2903                 0.4926                 0.3318
 IR Inten    --      1.5324                16.7404                 3.5371

                     19                     20                     21
                      A                      A                      A
 Frequencies --    470.8333               478.4541               503.9886
 Red. masses --      3.4438                 3.3942                 3.4584
 Frc consts  --      0.4498                 0.4578                 0.5176
 IR Inten    --      2.6256                 2.6114                 2.6233

                     22                     23                     24
                      A                      A                      A
 Frequencies --    539.8907               554.4827               575.8525
 Red. masses --      3.4024                 3.5743                 4.7924
 Frc consts  --      0.5843                 0.6475                 0.9363
 IR Inten    --      0.4621                 3.5678                 2.3630

                     25                     26                     27
                      A                      A                      A
 Frequencies --    592.6436               611.6970               636.2101
 Red. masses --      3.6289                 3.0535                 5.1001
 Frc consts  --      0.7510                 0.6732                 1.2163
 IR Inten    --      1.2925                11.7873                 4.8180

                     28                     29                     30
                      A                      A                      A
 Frequencies --    696.9284               728.2618               757.2168
 Red. masses --      4.4190                 3.2318                 2.2204
 Frc consts  --      1.2646                 1.0099                 0.7501
 IR Inten    --      3.8971                 3.5518                15.1207

                     31                     32                     33
                      A                      A                      A
 Frequencies --    770.4529               775.7992               784.4376
 Red. masses --      1.6051                 1.7809                 2.1746
 Frc consts  --      0.5614                 0.6315                 0.7884
 IR Inten    --     22.4115                49.4836                 3.5204

                     34                     35                     36
                      A                      A                      A
 Frequencies --    788.6628               813.7369               868.5608
 Red. masses --      1.9038                 2.3634                 1.8148
 Frc consts  --      0.6977                 0.9220                 0.8066
 IR Inten    --     27.6979                 3.8827                 7.8360

                     37                     38                     39
                      A                      A                      A
 Frequencies --    871.8051               889.5390               901.9633
 Red. masses --      1.5870                 1.4528                 2.1143
 Frc consts  --      0.7107                 0.6773                 1.0134
 IR Inten    --      3.4156                 2.7278                 5.2977

                     40                     41                     42
                      A                      A                      A
 Frequencies --    930.6669               944.6287               950.8259
 Red. masses --      2.3573                 1.4817                 1.4018
 Frc consts  --      1.2030                 0.7790                 0.7467
 IR Inten    --     20.2637                 8.0314                 8.0501

                     43                     44                     45
                      A                      A                      A
 Frequencies --    959.2702               979.0505               986.1229
 Red. masses --      1.4722                 1.2656                 2.1515
 Frc consts  --      0.7982                 0.7147                 1.2327
 IR Inten    --     11.9209                 0.3251                 0.7447

                     46                     47                     48
                      A                      A                      A
 Frequencies --    989.2754               999.8456              1032.2455
 Red. masses --      1.2660                 2.9467                 1.6452
 Frc consts  --      0.7300                 1.7356                 1.0328
 IR Inten    --      0.3106                19.7190                14.7007

                     49                     50                     51
                      A                      A                      A
 Frequencies --   1044.7797              1049.0543              1074.5129
 Red. masses --      2.1898                 2.3453                 2.0851
 Frc consts  --      1.4083                 1.5207                 1.4184
 IR Inten    --      9.9974                 2.9346                 2.2810

                     52                     53                     54
                      A                      A                      A
 Frequencies --   1092.9369              1100.7368              1136.3019
 Red. masses --      2.3595                 2.5874                 2.1171
 Frc consts  --      1.6606                 1.8470                 1.6106
 IR Inten    --      7.4523                11.6458                43.4928

                     55                     56                     57
                      A                      A                      A
 Frequencies --   1156.0637              1163.8428              1180.0443
 Red. masses --      2.0067                 1.6991                 1.6125
 Frc consts  --      1.5801                 1.3560                 1.3230
 IR Inten    --      7.2254                36.8645                35.4494

                     58                     59                     60
                      A                      A                      A
 Frequencies --   1190.9968              1194.6203              1205.2118
 Red. masses --      1.1552                 1.2489                 1.1667
 Frc consts  --      0.9654                 1.0501                 0.9984
 IR Inten    --      2.7947                 1.4840                 5.8055

                     61                     62                     63
                      A                      A                      A
 Frequencies --   1214.7572              1235.6673              1249.7110
 Red. masses --      1.6300                 2.6972                 1.6514
 Frc consts  --      1.4171                 2.4264                 1.5196
 IR Inten    --      1.3516                 8.6509                48.4802

                     64                     65                     66
                      A                      A                      A
 Frequencies --   1263.5131              1279.8806              1313.2456
 Red. masses --      2.2064                 1.9809                 1.5029
 Frc consts  --      2.0754                 1.9119                 1.5271
 IR Inten    --     78.5799               154.6231                17.2931

                     67                     68                     69
                      A                      A                      A
 Frequencies --   1329.3884              1341.2774              1347.2160
 Red. masses --      1.5638                 2.5392                 2.5560
 Frc consts  --      1.6283                 2.6914                 2.7333
 IR Inten    --      9.6961                50.1307                 2.0818

                     70                     71                     72
                      A                      A                      A
 Frequencies --   1355.2125              1366.3083              1369.4600
 Red. masses --      1.2921                 1.3834                 2.4735
 Frc consts  --      1.3981                 1.5216                 2.7331
 IR Inten    --     34.4549                17.3450                18.8778

                     73                     74                     75
                      A                      A                      A
 Frequencies --   1381.6507              1395.9701              1404.2123
 Red. masses --      1.4655                 1.4770                 1.3036
 Frc consts  --      1.6482                 1.6958                 1.5145
 IR Inten    --      4.6830                21.3210                 9.2229

                     76                     77                     78
                      A                      A                      A
 Frequencies --   1438.9058              1452.6592              1489.1861
 Red. masses --      1.4142                 1.3056                 1.7080
 Frc consts  --      1.7252                 1.6233                 2.2317
 IR Inten    --     35.8338                 4.3859                28.3870

                     79                     80                     81
                      A                      A                      A
 Frequencies --   1494.8599              1500.3794              1501.2344
 Red. masses --      1.4288                 1.1793                 1.2309
 Frc consts  --      1.8811                 1.5641                 1.6345
 IR Inten    --     27.3556                 6.7984                 3.1611

                     82                     83                     84
                      A                      A                      A
 Frequencies --   1505.8120              1531.3582              1533.4095
 Red. masses --      1.7252                 1.6854                 1.2143
 Frc consts  --      2.3049                 2.3287                 1.6822
 IR Inten    --     39.8045               130.6553                50.6890

                     85                     86                     87
                      A                      A                      A
 Frequencies --   1547.4462              1557.3010              1599.0234
 Red. masses --      2.0342                 1.2977                 1.1395
 Frc consts  --      2.8700                 1.8542                 1.7167
 IR Inten    --     30.0342                13.8284               196.2908

                     88                     89                     90
                      A                      A                      A
 Frequencies --   1633.6181              1643.1400              1655.7505
 Red. masses --      5.9763                 6.4518                 1.0527
 Frc consts  --      9.3969                10.2631                 1.7004
 IR Inten    --     22.2253                 7.2103                80.0393

                     91                     92                     93
                      A                      A                      A
 Frequencies --   1656.3121              1663.0108              1692.7195
 Red. masses --      5.5450                 5.5683                 1.0343
 Frc consts  --      8.9627                 9.0733                 1.7461
 IR Inten    --     24.6185                14.3534                81.7577

                     94                     95                     96
                      A                      A                      A
 Frequencies --   3020.2484              3045.5020              3058.6424
 Red. masses --      1.0721                 1.0653                 1.0620
 Frc consts  --      5.7621                 5.8213                 5.8539
 IR Inten    --     72.3302                33.4216                37.4408

                     97                     98                     99
                      A                      A                      A
 Frequencies --   3079.5531              3085.1653              3109.6140
 Red. masses --      1.0612                 1.0967                 1.1019
 Frc consts  --      5.9295                 6.1501                 6.2780
 IR Inten    --     26.1365                59.9431                47.2109

                    100                    101                    102
                      A                      A                      A
 Frequencies --   3116.6785              3131.2794              3136.1047
 Red. masses --      1.0989                 1.0925                 1.0614
 Frc consts  --      6.2894                 6.3115                 6.1507
 IR Inten    --     12.3454                33.3812                21.6880

                    103                    104                    105
                      A                      A                      A
 Frequencies --   3193.3898              3198.0690              3200.7065
 Red. masses --      1.1096                 1.0864                 1.0862
 Frc consts  --      6.6671                 6.5467                 6.5562
 IR Inten    --     13.2960                11.0025                 7.2188

                    106                    107                    108
                      A                      A                      A
 Frequencies --   3209.9627              3210.4542              3219.9876
 Red. masses --      1.0882                 1.0889                 1.0923
 Frc consts  --      6.6066                 6.6127                 6.6724
 IR Inten    --     10.6298                20.7369                40.4993

                    109                    110                    111
                      A                      A                      A
 Frequencies --   3225.6380              3230.3710              3245.3592
 Red. masses --      1.0954                 1.0970                 1.0918
 Frc consts  --      6.7154                 6.7447                 6.7751
 IR Inten    --     49.0717                29.7361                18.2334

                    112                    113                    114
                      A                      A                      A
 Frequencies --   3389.9063              3460.3818              3480.8682
 Red. masses --      1.0376                 1.0904                 1.0940
 Frc consts  --      7.0248                 7.6928                 7.8101
 IR Inten    --    101.6928               183.5057               187.6115

 - Thermochemistry -
 -------------------
 Temperature   298.150 Kelvin.  Pressure   1.00000 Atm.
 Atom     1 has atomic number  7 and mass  14.00307

 Molecular mass:   253.17047 amu.
 Principal axes and moments of inertia in atomic units:
                           1         2         3
     Eigenvalues --  3857.141755720.424397227.68566
           X            0.99911   0.04212   0.00283
           Y           -0.04208   0.99903  -0.01333
           Z           -0.00339   0.01319   0.99991
 This molecule is an asymmetric top.
 Rotational symmetry number  1.
 Warning -- assumption of classical behavior for rotation
           may cause significant error
 Rotational temperatures (Kelvin)      0.02246     0.01514     0.01198
 Rotational constants (GHZ):           0.46790     0.31549     0.24970
 Zero-point vibrational energy     933746.7 (Joules/Mol)
                                  223.17082 (Kcal/Mol)
 Warning -- explicit consideration of  26 degrees of freedom as
           vibrations may cause significant error
 Vibrational temperatures:     50.94    61.10   113.36   135.09   192.94
          (Kelvin)            206.88   239.61   243.86   288.94   359.08
                              422.25   440.78   458.06   493.19   501.00
                              521.06   605.44   632.09   677.42   688.39
                              725.13   776.78   797.78   828.52   852.68
                              880.10   915.36  1002.72  1047.81  1089.47
                             1108.51  1116.20  1128.63  1134.71  1170.79
                             1249.67  1254.33  1279.85  1297.72  1339.02
                             1359.11  1368.03  1380.18  1408.64  1418.81
                             1423.35  1438.55  1485.17  1503.20  1509.36
                             1545.98  1572.49  1583.71  1634.89  1663.32
                             1674.51  1697.82  1713.58  1718.79  1734.03
                             1747.76  1777.85  1798.06  1817.91  1841.46
                             1889.47  1912.69  1929.80  1938.34  1949.85
                             1965.81  1970.35  1987.89  2008.49  2020.35
                             2070.26  2090.05  2142.61  2150.77  2158.71
                             2159.94  2166.53  2203.28  2206.23  2226.43
                             2240.61  2300.64  2350.41  2364.11  2382.26
                             2383.06  2392.70  2435.45  4345.46  4381.80
                             4400.70  4430.79  4438.86  4474.04  4484.21
                             4505.21  4512.16  4594.58  4601.31  4605.10
                             4618.42  4619.13  4632.84  4640.97  4647.78
                             4669.35  4877.32  4978.72  5008.19

 Zero-point correction=                           0.355645 (Hartree/Particle)
 Thermal correction to Energy=                    0.371737
 Thermal correction to Enthalpy=                  0.372681
 Thermal correction to Gibbs Free Energy=         0.312104
 Sum of electronic and zero-point Energies=           -769.484441
 Sum of electronic and thermal Energies=              -769.468350
 Sum of electronic and thermal Enthalpies=            -769.467406
 Sum of electronic and thermal Free Energies=         -769.527983

                     E (Thermal)             CV                S
                      KCal/Mol        Cal/Mol-Kelvin    Cal/Mol-Kelvin
 Total                  233.268             65.551            127.495
 Electronic               0.000              0.000              0.000
 Translational            0.889              2.981             42.487
 Rotational               0.889              2.981             33.433
 Vibrational            231.491             59.589             51.575
 Vibration     1          0.594              1.982              5.501
 Vibration     2          0.595              1.980              5.141
 Vibration     3          0.600              1.963              3.921
 Vibration     4          0.603              1.954              3.577
 Vibration     5          0.613              1.919              2.886
 Vibration     6          0.616              1.909              2.753
 Vibration     7          0.624              1.884              2.474
 Vibration     8          0.625              1.880              2.441
 Vibration     9          0.638              1.839              2.126
 Vibration    10          0.662              1.763              1.734
 Vibration    11          0.688              1.686              1.454
 Vibration    12          0.697              1.662              1.382
 Vibration    13          0.705              1.638              1.318
 Vibration    14          0.722              1.590              1.199
 Vibration    15          0.726              1.579              1.174
 Vibration    16          0.736              1.550              1.113
 Vibration    17          0.783              1.425              0.889
 Vibration    18          0.799              1.384              0.829
 Vibration    19          0.828              1.315              0.735
 Vibration    20          0.835              1.298              0.714
 Vibration    21          0.859              1.241              0.648
 Vibration    22          0.895              1.162              0.566
 Vibration    23          0.910              1.130              0.535
 Vibration    24          0.932              1.083              0.493
 Vibration    25          0.950              1.047              0.462
 Vibration    26          0.971              1.007              0.430

                           ! Non-Optimized Parameters !
 Normal termination of Gaussian 16 at Sun Jul 18 17:08:51 2021.

 ----------------------------------------------------------------------
 #p b3lyp/6-31G(d) scrf=(iefpcm,read,solvent=n-octanol) geom=allcheck g
 uess=read
 ----------------------------------------------------------------------

 Structure from the checkpoint file:  "SET_328_BBB20_conf1.geo_105_285_180.chk"
 --------------------------------------------
 SET_328_BBB20_conf1.geo_105_285_180 geometry
 --------------------------------------------
 Charge =  1 Multiplicity = 1

 SCF Done:  E(RB3LYP) =  -769.842876696     A.U. after    1 cycles
 Normal termination of Gaussian 16 at Sun Jul 18 17:09:57 2021.

 -----------------------------
 #p B3LYP/6-31G* geom=allcheck
 -----------------------------

 Structure from the checkpoint file:  "SET_328_BBB20_conf1.geo_105_285_180.chk"
 --------------------------------------------
 SET_328_BBB20_conf1.geo_105_285_180 geometry
 --------------------------------------------
 Charge =  1 Multiplicity = 1

 SCF Done:  E(RB3LYP) =  -769.719136347     A.U. after   14 cycles
 Normal termination of Gaussian 16 at Sun Jul 18 17:13:24 2021.
 Gaussian 16:  ES64L-G16RevA.03 25-Dec-2016

 --------------------------------------------------------
 #p mp2/aug-cc-pVDZ scf=tight maxdisk=180GB geom=allcheck
 --------------------------------------------------------

 Structure from the checkpoint file:  "SET_328_BBB20_conf1.geo_105_285_180.chk"
 --------------------------------------------
 SET_328_BBB20_conf1.geo_105_285_180 geometry
 --------------------------------------------
 Charge =  1 Multiplicity = 1

                         Standard orientation:
 ---------------------------------------------------------------------
 Center     Atomic      Atomic             Coordinates (Angstroms)
 Number     Number       Type             X           Y           Z
 ---------------------------------------------------------------------
      1          7           0        3.336345    2.798911    1.297157
      2          1           0        3.630835    3.645402    0.790876
      3          1           0        4.054343    2.082518    1.125487
      4          6           0        1.965436    2.338010    0.882910
      5          1           0        1.274151    3.131031    1.167797
      6          1           0        1.735924    1.451216    1.472937
      7          6           0        1.901699    2.053178   -0.609700
      8          1           0        2.599863    1.251915   -0.870111
      9          1           0        2.207329    2.941950   -1.170543
     10          6           0        0.483354    1.691050   -1.056641
     11          1           0        0.473066    1.587180   -2.151219
     12          1           0       -0.179974    2.524960   -0.819050
     13          7           0       -0.044681    0.513327   -0.365357
     14          6           0       -1.468024    0.405576   -0.263386
     15          6           0       -2.268584    1.150181   -1.149130
     16          1           0       -1.792781    1.737887   -1.922906
     17          6           0       -3.657457    1.136350   -1.074753
     18          1           0       -4.236526    1.727370   -1.775930
     19          6           0       -4.288224    0.352740   -0.111832
     20          1           0       -5.369616    0.327537   -0.034212
     21          6           0       -3.502785   -0.401417    0.753945
     22          1           0       -3.980556   -1.013773    1.512359
     23          6           0       -2.101837   -0.400744    0.710849
     24          6           0       -1.416394   -1.287662    1.740858
     25          1           0       -1.647894   -2.333840    1.505201
     26          1           0       -1.886623   -1.094634    2.710868
     27          6           0        0.106361   -1.165470    1.891113
     28          1           0        0.431905   -1.820064    2.705113
     29          1           0        0.361155   -0.136991    2.172307
     30          6           0        0.824594   -1.539611    0.624181
     31          6           0        1.571381   -2.714928    0.513782
     32          1           0        1.648184   -3.365965    1.378816
     33          6           0        2.225391   -3.047613   -0.673214
     34          1           0        2.808825   -3.959797   -0.737017
     35          6           0        2.127016   -2.195180   -1.772494
     36          1           0        2.628148   -2.441044   -2.702228
     37          6           0        1.372356   -1.025989   -1.685412
     38          1           0        1.286638   -0.371390   -2.545617
     39          6           0        0.715016   -0.695221   -0.493733
     40          1           0        3.376163    3.023356    2.300414
 ---------------------------------------------------------------------

 SCF Done:  E(RHF) =  -764.751193881     A.U. after   16 cycles
 E2 =    -0.2715264099D+01 EUMP2 =    -0.76746645797975D+03

 The electronic state is 1-A.
 Alpha  occ. eigenvalues --  -15.89198 -15.68309 -11.46621 -11.39479 -11.39275
 Alpha  occ. eigenvalues --  -11.37338 -11.37123 -11.33779 -11.33546 -11.33311
 Alpha  occ. eigenvalues --  -11.33225 -11.33194 -11.32967 -11.32930 -11.32449
 Alpha  occ. eigenvalues --  -11.31992 -11.31836 -11.31671 -11.31200  -1.50088
 Alpha  occ. eigenvalues --   -1.37122  -1.24808  -1.23779  -1.20986  -1.17171
 Alpha  occ. eigenvalues --   -1.11793  -1.11367  -1.10187  -1.07606  -1.04185
 Alpha  occ. eigenvalues --   -0.98938  -0.97315  -0.95805  -0.93987  -0.91715
 Alpha  occ. eigenvalues --   -0.90241  -0.87990  -0.87088  -0.84469  -0.80403
 Alpha  occ. eigenvalues --   -0.79197  -0.77622  -0.75429  -0.74671  -0.73181
 Alpha  occ. eigenvalues --   -0.72098  -0.71911  -0.70068  -0.69346  -0.68487
 Alpha  occ. eigenvalues --   -0.67856  -0.66741  -0.65500  -0.64122  -0.63656
 Alpha  occ. eigenvalues --   -0.62976  -0.61810  -0.59722  -0.59297  -0.58100
 Alpha  occ. eigenvalues --   -0.57099  -0.56703  -0.55878  -0.51300  -0.42736
 Alpha  occ. eigenvalues --   -0.41623  -0.40784  -0.38675
 Alpha virt. eigenvalues --   -0.10889  -0.07274  -0.07143  -0.05446  -0.03849
 Alpha virt. eigenvalues --   -0.03459  -0.03257  -0.02877  -0.02653  -0.01825
 Alpha virt. eigenvalues --   -0.01278  -0.01015  -0.00910  -0.00503  -0.00127

 Mulliken charges:
               1
     1  N   -0.619608
     2  H    0.223726
     3  H    0.236907
     4  C    1.372342
     5  H   -0.125715
     6  H   -0.344201
     7  C    0.379599
     8  H   -0.052798
     9  H   -0.160872
    10  C    0.750357
    11  H   -0.228507
    12  H   -0.526287
    13  N   -0.100643
    14  C    0.438064
    15  C    0.831159
    16  H   -0.903104
    17  C    0.324430
    18  H   -0.512196
    19  C    0.103753
    20  H   -0.466002
    21  C    0.597113
    22  H   -0.743037
    23  C   -0.191189
    24  C    0.198363
    25  H    0.066148
    26  H   -0.024201
    27  C    0.860840
    28  H   -0.162635
    29  H   -0.163026
    30  C    0.612461
    31  C    0.496593
    32  H   -0.641288
    33  C    0.741054
    34  H   -0.463932
    35  C    0.166170
    36  H   -0.520770
    37  C    1.224586
    38  H   -0.771526
    39  C   -1.078466
    40  H    0.176341
 Sum of Mulliken charges =   1.00000

 Dipole moment (field-independent basis, Debye):
    X=             12.8362    Y=             10.8477    Z=              4.6330  Tot=             17.4328
 Quadrupole moment (field-independent basis, Debye-Ang):
   XX=            -57.2929   YY=            -70.0216   ZZ=            -95.9418
   XY=             35.1552   XZ=             14.2756   YZ=              7.9984

 Normal termination of Gaussian 16 at Sun Jul 18 18:43:21 2021.
