 Gaussian 16, Revision A.03,

 ---------------------------------------------------------------
 #p b3lyp/6-31G(d) opt freq scrf=(iefpcm,read,solvent=n-octanol)
 ---------------------------------------------------------------

 ---------------------------------------------
 SET_328_BBB292_conf1.geo_270_300_120 geometry
 ---------------------------------------------
 Symbolic Z-matrix:
 Charge =  1 Multiplicity = 1

 SCF Done:  E(RB3LYP) =  -705.606038182     A.U. after   13 cycles
 SCF Done:  E(RB3LYP) =  -705.660450723     A.U. after   12 cycles
 SCF Done:  E(RB3LYP) =  -705.659190969     A.U. after   13 cycles
 SCF Done:  E(RB3LYP) =  -705.688325080     A.U. after   12 cycles
 SCF Done:  E(RB3LYP) =  -705.691545408     A.U. after   11 cycles
 SCF Done:  E(RB3LYP) =  -705.692653487     A.U. after   11 cycles
 SCF Done:  E(RB3LYP) =  -705.692950660     A.U. after   11 cycles
 SCF Done:  E(RB3LYP) =  -705.693145633     A.U. after   11 cycles
 SCF Done:  E(RB3LYP) =  -705.693356483     A.U. after   10 cycles
 SCF Done:  E(RB3LYP) =  -705.693427825     A.U. after   10 cycles
 SCF Done:  E(RB3LYP) =  -705.699000329     A.U. after    9 cycles
 SCF Done:  E(RB3LYP) =  -705.699009887     A.U. after    8 cycles
 SCF Done:  E(RB3LYP) =  -705.699012564     A.U. after    8 cycles
 SCF Done:  E(RB3LYP) =  -705.699005777     A.U. after    8 cycles
 SCF Done:  E(RB3LYP) =  -705.699008410     A.U. after    7 cycles
 SCF Done:  E(RB3LYP) =  -705.699007596     A.U. after    7 cycles
 Optimization completed.
    -- Stationary point found.
 Normal termination of Gaussian 16 at Sun Jul 18 15:04:32 2021.

 --------------------------------------------------------------------
 #P Geom=AllCheck Guess=TCheck SCRF=Check GenChk RB3LYP/6-31G(d) Freq
 --------------------------------------------------------------------

 Structure from the checkpoint file:  "SET_328_BBB292_conf1.geo_270_300_120.chk"
 ---------------------------------------------
 SET_328_BBB292_conf1.geo_270_300_120 geometry
 ---------------------------------------------
 Charge =  1 Multiplicity = 1

 SCF Done:  E(RB3LYP) =  -705.699007596     A.U. after    1 cycles

  Exact polarizability: 161.569  -1.449 142.526  24.521  -0.338  89.549
 Approx polarizability: 197.252   6.375 189.572  39.158   2.154 119.054

                      1                      2                      3
                      A                      A                      A
 Frequencies --     54.2178                65.1243                82.9614
 Red. masses --      7.3106                 6.0019                 6.4135
 Frc consts  --      0.0127                 0.0150                 0.0260
 IR Inten    --      7.4912                39.4751                 5.8109

                      4                      5                      6
                      A                      A                      A
 Frequencies --    118.0970               159.2164               202.6126
 Red. masses --      4.2930                 6.7302                 5.3946
 Frc consts  --      0.0353                 0.1005                 0.1305
 IR Inten    --     21.9136                 2.9308                 6.2826

                      7                      8                      9
                      A                      A                      A
 Frequencies --    253.3810               293.3215               313.6369
 Red. masses --      2.6312                 1.3802                 2.1213
 Frc consts  --      0.0995                 0.0700                 0.1229
 IR Inten    --    127.5525               172.8290                15.6582

                     10                     11                     12
                      A                      A                      A
 Frequencies --    324.5375               333.5931               374.3708
 Red. masses --      3.7995                 3.3620                 1.4192
 Frc consts  --      0.2358                 0.2204                 0.1172
 IR Inten    --     13.7723                11.1945                42.0737

                     13                     14                     15
                      A                      A                      A
 Frequencies --    376.2227               407.0625               425.6907
 Red. masses --      2.7408                 2.2720                 1.0935
 Frc consts  --      0.2286                 0.2218                 0.1167
 IR Inten    --     68.0592                16.5118                51.6038

                     16                     17                     18
                      A                      A                      A
 Frequencies --    448.0283               471.3257               481.9910
 Red. masses --      2.8420                 2.9232                 3.1301
 Frc consts  --      0.3361                 0.3826                 0.4284
 IR Inten    --     20.7876                 3.7531                 6.9160

                     19                     20                     21
                      A                      A                      A
 Frequencies --    505.0527               554.3604               590.2812
 Red. masses --      4.1894                 4.2512                 4.0907
 Frc consts  --      0.6296                 0.7697                 0.8398
 IR Inten    --     22.2470                28.7814                10.2139

                     22                     23                     24
                      A                      A                      A
 Frequencies --    598.0618               648.4063               708.7949
 Red. masses --      4.9241                 4.5762                 5.7988
 Frc consts  --      1.0377                 1.1336                 1.7164
 IR Inten    --      1.5239                 5.5065                 0.1001

                     25                     26                     27
                      A                      A                      A
 Frequencies --    725.0824               769.3747               800.8129
 Red. masses --      5.2195                 4.5878                 4.9218
 Frc consts  --      1.6168                 1.6000                 1.8597
 IR Inten    --     10.4274                22.1015                32.3043

                     28                     29                     30
                      A                      A                      A
 Frequencies --    827.6294               844.5148               902.2163
 Red. masses --      1.9066                 2.0814                 1.5318
 Frc consts  --      0.7695                 0.8746                 0.7347
 IR Inten    --     13.8245                26.0966                36.7477

                     31                     32                     33
                      A                      A                      A
 Frequencies --    907.4028               936.7420               943.4917
 Red. masses --      2.2849                 2.2629                 1.3294
 Frc consts  --      1.1085                 1.1699                 0.6973
 IR Inten    --     13.9262                18.2178                 2.3163

                     34                     35                     36
                      A                      A                      A
 Frequencies --    988.4403              1053.1732              1100.3633
 Red. masses --      2.3455                 2.3211                 1.5768
 Frc consts  --      1.3502                 1.5169                 1.1248
 IR Inten    --     11.9265                32.1893                60.1048

                     37                     38                     39
                      A                      A                      A
 Frequencies --   1129.8670              1148.1757              1179.8503
 Red. masses --      1.8127                 1.4804                 1.3337
 Frc consts  --      1.3634                 1.1499                 1.0939
 IR Inten    --    138.6330               108.1567                68.4479

                     40                     41                     42
                      A                      A                      A
 Frequencies --   1195.7908              1225.4714              1243.0088
 Red. masses --      1.7138                 1.4626                 1.5149
 Frc consts  --      1.4439                 1.2941                 1.3791
 IR Inten    --     81.9570                81.2224                19.3873

                     43                     44                     45
                      A                      A                      A
 Frequencies --   1282.3795              1307.5097              1317.5451
 Red. masses --      1.4996                 2.0990                 1.5533
 Frc consts  --      1.4529                 2.1142                 1.5887
 IR Inten    --     16.3315                58.0350               152.7580

                     46                     47                     48
                      A                      A                      A
 Frequencies --   1329.4217              1356.6169              1368.9377
 Red. masses --      3.7556                 1.9009                 1.4929
 Frc consts  --      3.9107                 2.0612                 1.6483
 IR Inten    --    288.4553               308.2544               152.0901

                     49                     50                     51
                      A                      A                      A
 Frequencies --   1403.8585              1413.5756              1437.9810
 Red. masses --      2.3495                 1.6256                 1.5388
 Frc consts  --      2.7282                 1.9138                 1.8748
 IR Inten    --    122.3595                10.1434                50.8755

                     52                     53                     54
                      A                      A                      A
 Frequencies --   1520.9961              1524.5962              1556.6457
 Red. masses --      2.7514                 1.1014                 1.2327
 Frc consts  --      3.7503                 1.5084                 1.7599
 IR Inten    --      2.3839                54.4275               154.1489

                     55                     56                     57
                      A                      A                      A
 Frequencies --   1568.2481              1651.4380              1657.2638
 Red. masses --      2.8218                 1.0692                 5.5369
 Frc consts  --      4.0890                 1.7181                 8.9598
 IR Inten    --    282.7510               103.8030                37.3027

                     58                     59                     60
                      A                      A                      A
 Frequencies --   1677.2330              1682.4787              1854.0674
 Red. masses --      5.6015                 1.0637                 9.6457
 Frc consts  --      9.2842                 1.7740                19.5360
 IR Inten    --     31.6226                98.4730               281.5936

                     61                     62                     63
                      A                      A                      A
 Frequencies --   3107.8802              3156.5368              3157.4791
 Red. masses --      1.0609                 1.0988                 1.0904
 Frc consts  --      6.0372                 6.4505                 6.4050
 IR Inten    --     19.0561                 4.8545                 3.0474

                     64                     65                     66
                      A                      A                      A
 Frequencies --   3203.0186              3216.6609              3219.6575
 Red. masses --      1.0878                 1.0907                 1.0937
 Frc consts  --      6.5752                 6.6489                 6.6800
 IR Inten    --     13.4715                14.2711                 2.5936

                     67                     68                     69
                      A                      A                      A
 Frequencies --   3408.2453              3469.9896              3479.9883
 Red. masses --      1.0332                 1.0924                 1.0912
 Frc consts  --      7.0710                 7.7496                 7.7858
 IR Inten    --    109.4691               207.9085               250.4683

                     70                     71                     72
                      A                      A                      A
 Frequencies --   3707.2897              3769.2203              3795.4653
 Red. masses --      1.0650                 1.0663                 1.0666
 Frc consts  --      8.6244                 8.9256                 9.0528
 IR Inten    --    170.9457               183.9515                97.2967

 - Thermochemistry -
 -------------------
 Temperature   298.150 Kelvin.  Pressure   1.00000 Atm.
 Atom     1 has atomic number  7 and mass  14.00307

 Molecular mass:   198.07663 amu.
 Principal axes and moments of inertia in atomic units:
                           1         2         3
     Eigenvalues --  1386.246544654.225725215.47405
           X            0.99971  -0.02392  -0.00084
           Y            0.02392   0.99966   0.00996
           Z            0.00060  -0.00998   0.99995
 This molecule is an asymmetric top.
 Rotational symmetry number  1.
 Warning -- assumption of classical behavior for rotation
           may cause significant error
 Rotational temperatures (Kelvin)      0.06248     0.01861     0.01661
 Rotational constants (GHZ):           1.30189     0.38776     0.34604
 Zero-point vibrational energy     564122.9 (Joules/Mol)
                                  134.82860 (Kcal/Mol)
 Warning -- explicit consideration of  22 degrees of freedom as
           vibrations may cause significant error
 Vibrational temperatures:     78.01    93.70   119.36   169.92   229.08
          (Kelvin)            291.51   364.56   422.02   451.25   466.94
                              479.97   538.64   541.30   585.67   612.47
                              644.61   678.13   693.48   726.66   797.60
                              849.28   860.48   932.91  1019.80  1043.23
                             1106.96  1152.19  1190.77  1215.07  1298.09
                             1305.55  1347.76  1357.47  1422.15  1515.28
                             1583.18  1625.63  1651.97  1697.54  1720.48
                             1763.18  1788.41  1845.06  1881.21  1895.65
                             1912.74  1951.87  1969.60  2019.84  2033.82
                             2068.93  2188.37  2193.55  2239.67  2256.36
                             2376.05  2384.43  2413.16  2420.71  2667.59
                             4471.55  4541.55  4542.91  4608.43  4628.06
                             4632.37  4903.70  4992.54  5006.93  5333.96
                             5423.07  5460.83

 Zero-point correction=                           0.214863 (Hartree/Particle)
 Thermal correction to Energy=                    0.227959
 Thermal correction to Enthalpy=                  0.228904
 Thermal correction to Gibbs Free Energy=         0.175433
 Sum of electronic and zero-point Energies=           -705.484145
 Sum of electronic and thermal Energies=              -705.471048
 Sum of electronic and thermal Enthalpies=            -705.470104
 Sum of electronic and thermal Free Energies=         -705.523575

                     E (Thermal)             CV                S
                      KCal/Mol        Cal/Mol-Kelvin    Cal/Mol-Kelvin
 Total                  143.047             50.986            112.538
 Electronic               0.000              0.000              0.000
 Translational            0.889              2.981             41.755
 Rotational               0.889              2.981             31.887
 Vibrational            141.269             45.024             38.896
 Vibration     1          0.596              1.976              4.657
 Vibration     2          0.597              1.971              4.296
 Vibration     3          0.600              1.961              3.820
 Vibration     4          0.608              1.934              3.131
 Vibration     5          0.621              1.892              2.559
 Vibration     6          0.639              1.836              2.109
 Vibration     7          0.665              1.757              1.707
 Vibration     8          0.688              1.686              1.455
 Vibration     9          0.701              1.648              1.343
 Vibration    10          0.709              1.626              1.287
 Vibration    11          0.715              1.608              1.243
 Vibration    12          0.745              1.525              1.062
 Vibration    13          0.747              1.521              1.054
 Vibration    14          0.772              1.455              0.937
 Vibration    15          0.788              1.414              0.873
 Vibration    16          0.807              1.365              0.802
 Vibration    17          0.828              1.314              0.734
 Vibration    18          0.838              1.290              0.705
 Vibration    19          0.860              1.239              0.646
 Vibration    20          0.910              1.130              0.535
 Vibration    21          0.948              1.052              0.467
 Vibration    22          0.956              1.036              0.453

 Optimization completed.
    -- Stationary point found.
 Normal termination of Gaussian 16 at Sun Jul 18 15:21:33 2021.

 ----------------------------------------------------------------------
 #p b3lyp/6-31G(d) scrf=(iefpcm,read,solvent=n-octanol) geom=allcheck g
 uess=read
 ----------------------------------------------------------------------

 Structure from the checkpoint file:  "SET_328_BBB292_conf1.geo_270_300_120.chk"
 ---------------------------------------------
 SET_328_BBB292_conf1.geo_270_300_120 geometry
 ---------------------------------------------
 Charge =  1 Multiplicity = 1

 SCF Done:  E(RB3LYP) =  -705.701216799     A.U. after    1 cycles
 Normal termination of Gaussian 16 at Sun Jul 18 15:21:56 2021.

 -----------------------------
 #p B3LYP/6-31G* geom=allcheck
 -----------------------------

 Structure from the checkpoint file:  "SET_328_BBB292_conf1.geo_270_300_120.chk"
 ---------------------------------------------
 SET_328_BBB292_conf1.geo_270_300_120 geometry
 ---------------------------------------------
 Charge =  1 Multiplicity = 1

 SCF Done:  E(RB3LYP) =  -705.558992665     A.U. after   15 cycles

 The electronic state is 1-A.
 Alpha  occ. eigenvalues --  -19.36988 -19.30582 -19.29588 -19.28797 -14.67701
 Alpha  occ. eigenvalues --  -10.49271 -10.45009 -10.37358 -10.37124 -10.36240
 Alpha  occ. eigenvalues --  -10.33268 -10.31899 -10.31662 -10.31425  -1.27446
 Alpha  occ. eigenvalues --   -1.21804  -1.19347  -1.18387  -1.16151  -0.99468
 Alpha  occ. eigenvalues --   -0.96281  -0.89056  -0.86901  -0.82957  -0.80489
 Alpha  occ. eigenvalues --   -0.79788  -0.79000  -0.75495  -0.74046  -0.72444
 Alpha  occ. eigenvalues --   -0.67500  -0.67140  -0.64343  -0.62387  -0.60403
 Alpha  occ. eigenvalues --   -0.59443  -0.58430  -0.57638  -0.56916  -0.55600
 Alpha  occ. eigenvalues --   -0.54694  -0.53468  -0.52204  -0.50598  -0.48650
 Alpha  occ. eigenvalues --   -0.48220  -0.47180  -0.46591  -0.45076  -0.43642
 Alpha  occ. eigenvalues --   -0.36817  -0.33228
 Alpha virt. eigenvalues --   -0.18485  -0.16326  -0.12817  -0.11867  -0.11303
 Alpha virt. eigenvalues --   -0.10987  -0.08002  -0.05323  -0.04825  -0.03476
 Alpha virt. eigenvalues --   -0.02115   0.00303   0.01106   0.02064   0.02581

 Mulliken charges:
               1
     1  N   -0.750762
     2  H    0.439766
     3  H    0.421135
     4  C   -0.143203
     5  C    0.635064
     6  O   -0.518850
     7  H    0.404312
     8  O   -0.391354
     9  H    0.252596
    10  C   -0.386698
    11  H    0.184810
    12  H    0.246181
    13  C    0.124087
    14  C   -0.272201
    15  H    0.139999
    16  C    0.345001
    17  O   -0.636552
    18  H    0.445417
    19  C    0.315586
    20  O   -0.658466
    21  H    0.436969
    22  C   -0.184361
    23  H    0.164456
    24  C   -0.213495
    25  H    0.173655
    26  H    0.426907
 Sum of Mulliken charges =   1.00000

 Dipole moment (field-independent basis, Debye):
    X=             -4.6756    Y=              5.9951    Z=              5.1539  Tot=              9.1850
 Quadrupole moment (field-independent basis, Debye-Ang):
   XX=            -51.3111   YY=            -59.3157   ZZ=            -69.3537
   XY=            -32.3833   XZ=             -8.0704   YZ=              5.1742

 Normal termination of Gaussian 16 at Sun Jul 18 15:23:26 2021.
 Gaussian 16:  ES64L-G16RevA.03 25-Dec-2016

 --------------------------------------------------------
 #p mp2/aug-cc-pVDZ scf=tight maxdisk=180GB geom=allcheck
 --------------------------------------------------------

 Structure from the checkpoint file:  "SET_328_BBB292_conf1.geo_270_300_120.chk"
 ---------------------------------------------
 SET_328_BBB292_conf1.geo_270_300_120 geometry
 ---------------------------------------------
 Charge =  1 Multiplicity = 1

                         Standard orientation:
 ---------------------------------------------------------------------
 Center     Atomic      Atomic             Coordinates (Angstroms)
 Number     Number       Type             X           Y           Z
 ---------------------------------------------------------------------
      1          7           0       -1.959677    1.713873    0.961902
      2          1           0       -1.739361    2.663616    0.628438
      3          1           0       -1.115013    1.380791    1.451531
      4          6           0       -2.368774    0.838183   -0.194049
      5          6           0       -2.817088   -0.582763    0.182222
      6          8           0       -2.748037   -1.034457    1.442572
      7          1           0       -2.364490   -0.408330    2.077774
      8          8           0       -3.242430   -1.292755   -0.696149
      9          1           0       -3.252286    1.314453   -0.619828
     10          6           0       -1.262617    0.793874   -1.270638
     11          1           0       -1.142689    1.804662   -1.671272
     12          1           0       -1.673499    0.177078   -2.072345
     13          6           0        0.068798    0.252668   -0.795612
     14          6           0        1.117616    1.134771   -0.490715
     15          1           0        1.000755    2.205518   -0.620828
     16          6           0        2.343303    0.654691   -0.040978
     17          8           0        3.353837    1.518773    0.249513
     18          1           0        4.125779    0.985985    0.511022
     19          6           0        2.536119   -0.730462    0.109836
     20          8           0        3.777517   -1.083843    0.561192
     21          1           0        3.872834   -2.048594    0.584122
     22          6           0        1.507759   -1.613589   -0.199906
     23          1           0        1.665714   -2.683551   -0.096716
     24          6           0        0.278949   -1.124170   -0.652816
     25          1           0       -0.507406   -1.825935   -0.910880
     26          1           0       -2.704084    1.836224    1.664582
 ---------------------------------------------------------------------

 SCF Done:  E(RHF) =  -701.568215728     A.U. after   17 cycles
