 Gaussian 16, Revision A.03,

 ---------------------------------------------------------------
 #p b3lyp/6-31G(d) opt freq scrf=(iefpcm,read,solvent=n-octanol)
 ---------------------------------------------------------------

 ---------------------------------------------
 SET_328_BBB321_conf1.geo_180_165_300 geometry
 ---------------------------------------------
 Symbolic Z-matrix:
 Charge =  1 Multiplicity = 1

 SCF Done:  E(RB3LYP) =  -1212.59500327     A.U. after   16 cycles
 SCF Done:  E(RB3LYP) =  -1212.69775509     A.U. after   12 cycles
 SCF Done:  E(RB3LYP) =  -1212.74605510     A.U. after   12 cycles
 SCF Done:  E(RB3LYP) =  -1212.78592996     A.U. after   12 cycles
 SCF Done:  E(RB3LYP) =  -1212.80142310     A.U. after   12 cycles
 SCF Done:  E(RB3LYP) =  -1212.81126556     A.U. after   12 cycles
 SCF Done:  E(RB3LYP) =  -1212.81542824     A.U. after   13 cycles
 SCF Done:  E(RB3LYP) =  -1212.81806998     A.U. after   15 cycles
 SCF Done:  E(RB3LYP) =  -1212.81985572     A.U. after   11 cycles
 SCF Done:  E(RB3LYP) =  -1212.82034557     A.U. after   11 cycles
 SCF Done:  E(RB3LYP) =  -1212.82066103     A.U. after    9 cycles
 SCF Done:  E(RB3LYP) =  -1212.82062813     A.U. after   10 cycles
 SCF Done:  E(RB3LYP) =  -1212.82066098     A.U. after    9 cycles
 SCF Done:  E(RB3LYP) =  -1212.82066195     A.U. after    8 cycles
 SCF Done:  E(RB3LYP) =  -1212.82066190     A.U. after    7 cycles
 SCF Done:  E(RB3LYP) =  -1212.82066195     A.U. after    7 cycles
 Optimization completed.
    -- Stationary point found.
 Normal termination of Gaussian 16 at Sun Jul 18 18:38:46 2021.

 --------------------------------------------------------------------
 #P Geom=AllCheck Guess=TCheck SCRF=Check GenChk RB3LYP/6-31G(d) Freq
 --------------------------------------------------------------------

 Structure from the checkpoint file:  "SET_328_BBB321_conf1.geo_180_165_300.chk"
 ---------------------------------------------
 SET_328_BBB321_conf1.geo_180_165_300 geometry
 ---------------------------------------------
 Charge =  1 Multiplicity = 1

 SCF Done:  E(RB3LYP) =  -1212.82066195     A.U. after    1 cycles

  Exact polarizability: 335.988   4.863 266.375  -0.685   0.614  87.778
 Approx polarizability: 364.457  10.930 365.976   0.291   0.692 116.424

                      1                      2                      3
                      A                      A                      A
 Frequencies --      8.6620                57.2819                66.2025
 Red. masses --      5.6124                 6.6419                 2.0777
 Frc consts  --      0.0002                 0.0128                 0.0054
 IR Inten    --      4.9175                14.1322                 4.5167

                      4                      5                      6
                      A                      A                      A
 Frequencies --     75.8181                83.4002                87.7173
 Red. masses --      2.7770                 2.7079                 6.8762
 Frc consts  --      0.0094                 0.0111                 0.0312
 IR Inten    --      3.7124                 1.1924                 2.9008

                      7                      8                      9
                      A                      A                      A
 Frequencies --     93.7463               110.4097               131.7777
 Red. masses --      2.6018                 4.7242                 6.2710
 Frc consts  --      0.0135                 0.0339                 0.0642
 IR Inten    --      0.8100                11.7556                 7.3497

                     10                     11                     12
                      A                      A                      A
 Frequencies --    209.3744               213.5971               255.4763
 Red. masses --      1.2618                 4.8563                 4.3146
 Frc consts  --      0.0326                 0.1305                 0.1659
 IR Inten    --    283.8092                 2.6801                 8.2389

                     13                     14                     15
                      A                      A                      A
 Frequencies --    257.8703               279.0998               282.7835
 Red. masses --      4.6262                 4.5657                 4.5900
 Frc consts  --      0.1812                 0.2095                 0.2163
 IR Inten    --      8.5974                15.4780                 7.2209

                     16                     17                     18
                      A                      A                      A
 Frequencies --    335.7825               341.4432               352.2082
 Red. masses --      5.4145                 4.8141                 7.0167
 Frc consts  --      0.3597                 0.3307                 0.5128
 IR Inten    --     19.1041                 8.0054                 4.9243

                     19                     20                     21
                      A                      A                      A
 Frequencies --    355.0096               390.6566               408.8419
 Red. masses --      1.3367                 4.0114                 1.1155
 Frc consts  --      0.0993                 0.3607                 0.1099
 IR Inten    --    132.3708                 2.8795               256.8302

                     22                     23                     24
                      A                      A                      A
 Frequencies --    451.9390               491.0985               529.7886
 Red. masses --      3.5309                 4.6192                 2.3102
 Frc consts  --      0.4249                 0.6564                 0.3820
 IR Inten    --      2.0073                 0.4751                94.4640

                     25                     26                     27
                      A                      A                      A
 Frequencies --    539.5928               557.4401               564.5350
 Red. masses --      4.1472                 2.4706                 2.0123
 Frc consts  --      0.7114                 0.4523                 0.3779
 IR Inten    --     28.2608                12.2401               116.1854

                     28                     29                     30
                      A                      A                      A
 Frequencies --    584.2059               603.2332               621.9001
 Red. masses --      1.8699                 2.2836                 8.8666
 Frc consts  --      0.3760                 0.4896                 2.0205
 IR Inten    --     15.3550                45.6060                 2.1548

                     31                     32                     33
                      A                      A                      A
 Frequencies --    633.0836               668.4631               674.7857
 Red. masses --      1.6545                 1.2283                 5.5853
 Frc consts  --      0.3907                 0.3234                 1.4984
 IR Inten    --     28.1129                 9.9257                 5.1723

                     34                     35                     36
                      A                      A                      A
 Frequencies --    690.6916               696.0599               705.5224
 Red. masses --      6.4784                 3.8412                 2.6352
 Frc consts  --      1.8209                 1.0965                 0.7728
 IR Inten    --     18.8494                 0.4528                 2.9071

                     37                     38                     39
                      A                      A                      A
 Frequencies --    712.3873               747.6268               811.1230
 Red. masses --      2.0804                 1.8320                 1.7201
 Frc consts  --      0.6221                 0.6033                 0.6668
 IR Inten    --      2.2937                75.3832                31.1392

                     40                     41                     42
                      A                      A                      A
 Frequencies --    823.9798               870.7256               886.7377
 Red. masses --      6.0139                 6.2904                 4.2798
 Frc consts  --      2.4057                 2.8099                 1.9828
 IR Inten    --     31.9918                21.6063                10.6338

                     43                     44                     45
                      A                      A                      A
 Frequencies --    907.1519               936.8333               971.1589
 Red. masses --      1.4059                 1.4159                 6.2924
 Frc consts  --      0.6817                 0.7322                 3.4966
 IR Inten    --      1.1576                18.4961                 7.6176

                     46                     47                     48
                      A                      A                      A
 Frequencies --    980.4665               987.1020              1009.4587
 Red. masses --      1.2765                 2.8009                 4.8003
 Frc consts  --      0.7230                 1.6079                 2.8820
 IR Inten    --      1.6246                 0.9591                 6.6044

                     49                     50                     51
                      A                      A                      A
 Frequencies --   1016.6585              1035.8251              1063.4987
 Red. masses --      5.9464                 1.9061                 1.7041
 Frc consts  --      3.6212                 1.2049                 1.1356
 IR Inten    --      1.0512                73.0848                 9.0970

                     52                     53                     54
                      A                      A                      A
 Frequencies --   1092.9326              1107.7698              1136.3306
 Red. masses --      1.5782                 1.5109                 1.6469
 Frc consts  --      1.1107                 1.0924                 1.2529
 IR Inten    --     13.1574                 8.2687                15.5888

                     55                     56                     57
                      A                      A                      A
 Frequencies --   1152.4845              1202.1823              1210.3054
 Red. masses --      1.6623                 1.3894                 1.2683
 Frc consts  --      1.3009                 1.1831                 1.0946
 IR Inten    --      2.8323                 1.5638                 2.3138

                     58                     59                     60
                      A                      A                      A
 Frequencies --   1252.5654              1271.5107              1295.4619
 Red. masses --      3.1640                 3.4507                 2.3920
 Frc consts  --      2.9248                 3.2870                 2.3651
 IR Inten    --    245.1804                55.5635               176.2989

                     61                     62                     63
                      A                      A                      A
 Frequencies --   1324.0163              1345.7501              1378.8154
 Red. masses --      1.6510                 4.7998                 3.8485
 Frc consts  --      1.7053                 5.1216                 4.3107
 IR Inten    --     42.7792                50.8903                34.0573

                     64                     65                     66
                      A                      A                      A
 Frequencies --   1419.8498              1480.5015              1502.3068
 Red. masses --      1.3002                 3.1080                 1.1487
 Frc consts  --      1.5443                 4.0138                 1.5275
 IR Inten    --     22.7555               394.7984                32.0882

                     67                     68                     69
                      A                      A                      A
 Frequencies --   1509.7174              1511.3519              1517.9999
 Red. masses --      1.7805                 1.0551                 2.4645
 Frc consts  --      2.3911                 1.4200                 3.3460
 IR Inten    --     23.4662                11.0359               117.4451

                     70                     71                     72
                      A                      A                      A
 Frequencies --   1547.2589              1566.5507              1595.2903
 Red. masses --      2.3612                 3.7158                 2.3801
 Frc consts  --      3.3305                 5.3726                 3.5688
 IR Inten    --    500.3642                48.8379               261.9910

                     73                     74                     75
                      A                      A                      A
 Frequencies --   1601.0402              1635.1500              1650.6223
 Red. masses --      2.8857                 1.4892                 4.8320
 Frc consts  --      4.3581                 2.3459                 7.7566
 IR Inten    --    130.3011               457.3382               150.3632

                     76                     77                     78
                      A                      A                      A
 Frequencies --   1661.3058              1669.3213              1724.6480
 Red. masses --      1.5715                 4.8161                 3.4170
 Frc consts  --      2.5555                 7.9072                 5.9881
 IR Inten    --    779.5178                54.3143               834.6886

                     79                     80                     81
                      A                      A                      A
 Frequencies --   1773.9406              3081.0159              3144.7066
 Red. masses --      7.5219                 1.0393                 1.1006
 Frc consts  --     13.9463                 5.8128                 6.4124
 IR Inten    --    269.9346                 5.1420                10.2966

                     82                     83                     84
                      A                      A                      A
 Frequencies --   3198.1686              3203.9150              3221.3230
 Red. masses --      1.1015                 1.0875                 1.0929
 Frc consts  --      6.6378                 6.5774                 6.6822
 IR Inten    --      9.9188                12.0131                30.4559

                     85                     86                     87
                      A                      A                      A
 Frequencies --   3248.9215              3272.9859              3312.3929
 Red. masses --      1.0920                 1.0904                 1.0947
 Frc consts  --      6.7912                 6.8824                 7.0764
 IR Inten    --      8.6641                 7.5214                 9.5611

                     88                     89                     90
                      A                      A                      A
 Frequencies --   3477.4498              3561.8628              3573.4911
 Red. masses --      1.0556                 1.0521                 1.0735
 Frc consts  --      7.5207                 7.8644                 8.0768
 IR Inten    --    443.9920               178.8014               370.2032

                     91                     92                     93
                      A                      A                      A
 Frequencies --   3583.1994              3644.0908              3675.5493
 Red. masses --      1.0774                 1.0991                 1.1091
 Frc consts  --      8.1499                 8.5994                 8.8279
 IR Inten    --     62.6978               403.0102               226.8107

 - Thermochemistry -
 -------------------
 Temperature   298.150 Kelvin.  Pressure   1.00000 Atm.
 Atom     1 has atomic number  6 and mass  12.00000

 Molecular mass:   276.09191 amu.
 Principal axes and moments of inertia in atomic units:
                           1         2         3
     Eigenvalues --  2357.90619********************
           X            0.99998  -0.00589  -0.00075
           Y            0.00589   0.99998  -0.00188
           Z            0.00076   0.00188   1.00000
 This molecule is an asymmetric top.
 Rotational symmetry number  1.
 Warning -- assumption of classical behavior for rotation
           may cause significant error
 Rotational temperatures (Kelvin)      0.03673     0.00708     0.00604
 Rotational constants (GHZ):           0.76540     0.14751     0.12589
 Zero-point vibrational energy     684899.7 (Joules/Mol)
                                  163.69495 (Kcal/Mol)
 Warning -- explicit consideration of  29 degrees of freedom as
           vibrations may cause significant error
 Vibrational temperatures:     12.46    82.42    95.25   109.09   119.99
          (Kelvin)            126.21   134.88   158.85   189.60   301.24
                              307.32   367.57   371.02   401.56   406.86
                              483.12   491.26   506.75   510.78   562.07
                              588.23   650.24   706.58   762.25   776.35
                              802.03   812.24   840.54   867.92   894.78
                              910.87   961.77   970.87   993.75  1001.47
                             1015.09  1024.97  1075.67  1167.03  1185.52
                             1252.78  1275.82  1305.19  1347.89  1397.28
                             1410.67  1420.22  1452.39  1462.74  1490.32
                             1530.14  1572.49  1593.83  1634.93  1658.17
                             1729.67  1741.36  1802.16  1829.42  1863.88
                             1904.96  1936.23  1983.81  2042.85  2130.11
                             2161.48  2172.15  2174.50  2184.06  2226.16
                             2253.92  2295.27  2303.54  2352.62  2374.88
                             2390.25  2401.78  2481.38  2552.30  4432.89
                             4524.53  4601.45  4609.72  4634.77  4674.47
                             4709.10  4765.79  5003.27  5124.73  5141.46
                             5155.42  5243.03  5288.30

 Zero-point correction=                           0.260865 (Hartree/Particle)
 Thermal correction to Energy=                    0.279230
 Thermal correction to Enthalpy=                  0.280174
 Thermal correction to Gibbs Free Energy=         0.212510
 Sum of electronic and zero-point Energies=          -1212.559797
 Sum of electronic and thermal Energies=             -1212.541432
 Sum of electronic and thermal Enthalpies=           -1212.540488
 Sum of electronic and thermal Free Energies=        -1212.608152

                     E (Thermal)             CV                S
                      KCal/Mol        Cal/Mol-Kelvin    Cal/Mol-Kelvin
 Total                  175.220             69.566            142.412
 Electronic               0.000              0.000              0.000
 Translational            0.889              2.981             42.745
 Rotational               0.889              2.981             34.380
 Vibrational            173.442             63.604             65.287
 Vibration     1          0.593              1.987              8.296
 Vibration     2          0.596              1.975              4.549
 Vibration     3          0.598              1.970              4.263
 Vibration     4          0.599              1.965              3.996
 Vibration     5          0.600              1.961              3.809
 Vibration     6          0.601              1.958              3.710
 Vibration     7          0.603              1.954              3.580
 Vibration     8          0.606              1.941              3.262
 Vibration     9          0.612              1.922              2.920
 Vibration    10          0.642              1.826              2.049
 Vibration    11          0.644              1.820              2.013
 Vibration    12          0.666              1.754              1.692
 Vibration    13          0.667              1.749              1.676
 Vibration    14          0.679              1.712              1.539
 Vibration    15          0.682              1.706              1.517
 Vibration    16          0.717              1.604              1.232
 Vibration    17          0.721              1.593              1.205
 Vibration    18          0.729              1.571              1.156
 Vibration    19          0.731              1.565              1.144
 Vibration    20          0.758              1.490              0.998
 Vibration    21          0.773              1.451              0.931
 Vibration    22          0.811              1.357              0.790
 Vibration    23          0.847              1.270              0.681
 Vibration    24          0.885              1.184              0.588
 Vibration    25          0.895              1.163              0.566
 Vibration    26          0.913              1.123              0.529
 Vibration    27          0.920              1.108              0.515
 Vibration    28          0.941              1.066              0.478
 Vibration    29          0.962              1.025              0.444

                           ! Non-Optimized Parameters !
 Normal termination of Gaussian 16 at Sun Jul 18 19:10:49 2021.

 ----------------------------------------------------------------------
 #p b3lyp/6-31G(d) scrf=(iefpcm,read,solvent=n-octanol) geom=allcheck g
 uess=read
 ----------------------------------------------------------------------

 Structure from the checkpoint file:  "SET_328_BBB321_conf1.geo_180_165_300.chk"
 ---------------------------------------------
 SET_328_BBB321_conf1.geo_180_165_300 geometry
 ---------------------------------------------
 Charge =  1 Multiplicity = 1

 SCF Done:  E(RB3LYP) =  -1212.82066195     A.U. after    1 cycles
 Normal termination of Gaussian 16 at Sun Jul 18 19:11:44 2021.

 -----------------------------
 #p B3LYP/6-31G* geom=allcheck
 -----------------------------

 Structure from the checkpoint file:  "SET_328_BBB321_conf1.geo_180_165_300.chk"
 ---------------------------------------------
 SET_328_BBB321_conf1.geo_180_165_300 geometry
 ---------------------------------------------
 Charge =  1 Multiplicity = 1

 SCF Done:  E(RB3LYP) =  -1212.69868246     A.U. after   17 cycles
 Normal termination of Gaussian 16 at Sun Jul 18 19:14:20 2021.
 Gaussian 16:  ES64L-G16RevA.03 25-Dec-2016

 --------------------------------------------------------
 #p mp2/aug-cc-pVDZ scf=tight maxdisk=180GB geom=allcheck
 --------------------------------------------------------

 Structure from the checkpoint file:  "SET_328_BBB321_conf1.geo_180_165_300.chk"
 ---------------------------------------------
 SET_328_BBB321_conf1.geo_180_165_300 geometry
 ---------------------------------------------
 Charge =  1 Multiplicity = 1

                         Standard orientation:
 ---------------------------------------------------------------------
 Center     Atomic      Atomic             Coordinates (Angstroms)
 Number     Number       Type             X           Y           Z
 ---------------------------------------------------------------------
      1          6           0        6.294232   -0.847324    0.501730
      2          1           0        6.789121   -0.624620   -0.449011
      3          1           0        6.565531   -1.854763    0.812913
      4          1           0        6.656375   -0.129986    1.242722
      5          6           0        4.785881   -0.777528    0.346829
      6          8           0        4.071542   -1.772891    0.402555
      7          7           0        4.310247    0.494793    0.128430
      8          1           0        5.007409    1.231749    0.105920
      9          6           0        2.986054    0.925445   -0.071730
     10          6           0        2.778821    2.299726   -0.275215
     11          6           0        1.492995    2.790627   -0.465096
     12          6           0        0.396908    1.931857   -0.457381
     13          1           0       -0.604316    2.312053   -0.614501
     14          1           0        1.346121    3.853561   -0.622273
     15          1           0        3.626053    2.978206   -0.278540
     16          6           0        1.888384    0.057989   -0.063028
     17          1           0        2.055619   -0.994037    0.116653
     18          6           0        0.593929    0.559822   -0.259626
     19          6           0       -0.557891   -0.358580   -0.262034
     20          7           0       -1.837123    0.150419   -0.075395
     21          6           0       -0.510645   -1.712893   -0.444344
     22          1           0        0.347195   -2.336773   -0.636100
     23         16           0       -2.100250   -2.407946   -0.374729
     24          6           0       -2.732292   -0.792139   -0.103524
     25          7           0       -4.094144   -0.595959    0.079368
     26          6           0       -4.712663    0.589277    0.366900
     27          7           0       -4.015165    1.706829    0.487297
     28          1           0       -4.487066    2.577432    0.705525
     29          1           0       -3.005487    1.681301    0.355587
     30          7           0       -6.034039    0.571924    0.512152
     31          1           0       -6.553796   -0.297868    0.474179
     32          1           0       -6.531993    1.422285    0.749777
     33          1           0       -4.709810   -1.401974    0.008517
 ---------------------------------------------------------------------

 SCF Done:  E(RHF) =  -1207.16112221     A.U. after   18 cycles
 E2 =    -0.2815899931D+01 EUMP2 =    -0.12099770221425D+04

 The electronic state is 1-A.
 Alpha  occ. eigenvalues --  -92.12913 -20.61258 -15.81148 -15.79751 -15.78294
 Alpha  occ. eigenvalues --  -15.71523 -15.69003 -11.60331 -11.50848 -11.44415
 Alpha  occ. eigenvalues --  -11.40514 -11.38475 -11.38297 -11.35124 -11.33480
 Alpha  occ. eigenvalues --  -11.33055 -11.32952 -11.32431 -11.31443  -9.13073
 Alpha  occ. eigenvalues --   -6.81236  -6.81128  -6.80936  -1.54775  -1.46451
 Alpha  occ. eigenvalues --   -1.44976  -1.39156  -1.38373  -1.33951  -1.24430
 Alpha  occ. eigenvalues --   -1.19825  -1.16648  -1.11676  -1.10616  -1.06391
 Alpha  occ. eigenvalues --   -1.05039  -0.99099  -0.98390  -0.95424  -0.93133
 Alpha  occ. eigenvalues --   -0.91286  -0.87696  -0.86162  -0.85667  -0.85092
 Alpha  occ. eigenvalues --   -0.82666  -0.81522  -0.79881  -0.76763  -0.75756
 Alpha  occ. eigenvalues --   -0.72319  -0.71855  -0.70412  -0.69820  -0.69710
 Alpha  occ. eigenvalues --   -0.67843  -0.66324  -0.64078  -0.63509  -0.63309
 Alpha  occ. eigenvalues --   -0.62256  -0.61326  -0.61058  -0.59120  -0.58277
 Alpha  occ. eigenvalues --   -0.57604  -0.53094  -0.51859  -0.50046  -0.47151
 Alpha  occ. eigenvalues --   -0.40766  -0.39009
 Alpha virt. eigenvalues --   -0.08890  -0.06858  -0.05225  -0.04340  -0.03449
 Alpha virt. eigenvalues --   -0.03403  -0.03043  -0.02683  -0.02062  -0.01579
 Alpha virt. eigenvalues --   -0.01397  -0.00380  -0.00121   0.00244   0.00446

 Mulliken charges:
               1
     1  C    0.478839
     2  H    0.068970
     3  H   -0.071677
     4  H    0.017781
     5  C    0.571982
     6  O   -0.840250
     7  N   -0.771984
     8  H   -0.051246
     9  C   -0.436239
    10  C    1.064307
    11  C    0.051192
    12  C    0.946315
    13  H   -0.682110
    14  H   -0.477813
    15  H   -0.702581
    16  C    0.928871
    17  H   -0.691873
    18  C    1.763290
    19  C   -0.627077
    20  N   -0.660395
    21  C    0.396379
    22  H   -0.524701
    23  S    0.473454
    24  C    0.371807
    25  N   -0.666658
    26  C    1.355446
    27  N   -0.175660
    28  H    0.004454
    29  H    0.138030
    30  N   -0.262497
    31  H    0.000116
    32  H    0.027910
    33  H   -0.016379
 Sum of Mulliken charges =   1.00000

 Dipole moment (field-independent basis, Debye):
    X=            -16.1330    Y=              4.3174    Z=              1.3275  Tot=             16.7534
 Quadrupole moment (field-independent basis, Debye-Ang):
   XX=             41.4136   YY=            -96.1695   ZZ=           -122.4850
   XY=              1.7959   XZ=            -10.3963   YZ=              4.6362

 Normal termination of Gaussian 16 at Sun Jul 18 20:17:04 2021.
