 Gaussian 16, Revision A.03,

 ---------------------------------------------------------------
 #p b3lyp/6-31G(d) opt freq scrf=(iefpcm,read,solvent=n-octanol)
 ---------------------------------------------------------------

 ---------------------------------------------
 SET_328_BBB324_conf1.geo_180_315_180 geometry
 ---------------------------------------------
 Symbolic Z-matrix:
 Charge =  1 Multiplicity = 1

 SCF Done:  E(RB3LYP) =  -1692.64032881     A.U. after   14 cycles
 SCF Done:  E(RB3LYP) =  -1692.68615757     A.U. after   12 cycles
 SCF Done:  E(RB3LYP) =  -1692.71419264     A.U. after   12 cycles
 SCF Done:  E(RB3LYP) =  -1692.71848502     A.U. after   12 cycles
 SCF Done:  E(RB3LYP) =  -1692.71957237     A.U. after   11 cycles
 SCF Done:  E(RB3LYP) =  -1692.71992669     A.U. after   11 cycles
 SCF Done:  E(RB3LYP) =  -1692.72015283     A.U. after   10 cycles
 SCF Done:  E(RB3LYP) =  -1692.72030485     A.U. after   10 cycles
 SCF Done:  E(RB3LYP) =  -1692.72032561     A.U. after    9 cycles
 SCF Done:  E(RB3LYP) =  -1692.72032998     A.U. after    9 cycles
 SCF Done:  E(RB3LYP) =  -1692.72062696     A.U. after    9 cycles
 SCF Done:  E(RB3LYP) =  -1692.72062758     A.U. after    8 cycles
 SCF Done:  E(RB3LYP) =  -1692.72064895     A.U. after    9 cycles
 SCF Done:  E(RB3LYP) =  -1692.72062887     A.U. after    9 cycles
 SCF Done:  E(RB3LYP) =  -1692.72065032     A.U. after    9 cycles
 SCF Done:  E(RB3LYP) =  -1692.72062923     A.U. after    9 cycles
 Optimization completed.
    -- Stationary point found.
 Normal termination of Gaussian 16 at Sun Jul 18 21:36:43 2021.

 --------------------------------------------------------------------
 #P Geom=AllCheck Guess=TCheck SCRF=Check GenChk RB3LYP/6-31G(d) Freq
 --------------------------------------------------------------------

 Structure from the checkpoint file:  "SET_328_BBB324_conf1.geo_180_315_180.chk"
 ---------------------------------------------
 SET_328_BBB324_conf1.geo_180_315_180 geometry
 ---------------------------------------------
 Charge =  1 Multiplicity = 1

 SCF Done:  E(RB3LYP) =  -1692.72062923     A.U. after    1 cycles

  Exact polarizability: 383.053  -2.221 290.115 -25.657   0.714 168.073
 Approx polarizability: 434.396 -20.096 381.183 -28.810   4.433 227.727

                      1                      2                      3
                      A                      A                      A
 Frequencies --     16.0173                23.2120                34.3142
 Red. masses --      4.1781                 5.9919                 7.7544
 Frc consts  --      0.0006                 0.0019                 0.0054
 IR Inten    --      4.8888                 2.6912                 1.4064

                      4                      5                      6
                      A                      A                      A
 Frequencies --     44.0291                58.4994                85.8573
 Red. masses --      7.3091                 7.4901                 6.3194
 Frc consts  --      0.0083                 0.0151                 0.0274
 IR Inten    --      0.9015                 0.6728                 3.5149

                      7                      8                      9
                      A                      A                      A
 Frequencies --     87.1649                93.7895               124.8225
 Red. masses --      5.7873                 3.6366                 2.3991
 Frc consts  --      0.0259                 0.0188                 0.0220
 IR Inten    --      1.5367                 4.2571                 1.3657

                     10                     11                     12
                      A                      A                      A
 Frequencies --    130.5683               139.1380               173.2007
 Red. masses --      1.6610                 2.6953                 5.2725
 Frc consts  --      0.0167                 0.0307                 0.0932
 IR Inten    --      1.1684                 1.8459                 2.3793

                     13                     14                     15
                      A                      A                      A
 Frequencies --    189.8547               194.1009               197.1774
 Red. masses --      4.6654                 4.5641                 4.5016
 Frc consts  --      0.0991                 0.1013                 0.1031
 IR Inten    --      8.8913                 5.2435                 7.9078

                     16                     17                     18
                      A                      A                      A
 Frequencies --    211.3177               217.0900               236.7505
 Red. masses --      2.6345                 1.6909                 1.5854
 Frc consts  --      0.0693                 0.0470                 0.0524
 IR Inten    --     56.0290                87.3794                 4.7424

                     19                     20                     21
                      A                      A                      A
 Frequencies --    241.0302               286.2745               295.0342
 Red. masses --      2.5936                 3.7428                 4.6750
 Frc consts  --      0.0888                 0.1807                 0.2398
 IR Inten    --      3.1465                 9.2824                 4.3150

                     22                     23                     24
                      A                      A                      A
 Frequencies --    308.0836               321.3843               334.5134
 Red. masses --      5.7518                 3.6366                 5.1243
 Frc consts  --      0.3217                 0.2213                 0.3378
 IR Inten    --     11.8996                 1.1797                 3.1890

                     25                     26                     27
                      A                      A                      A
 Frequencies --    356.0929               371.6195               379.7896
 Red. masses --      3.6577                 3.3733                 5.3668
 Frc consts  --      0.2733                 0.2745                 0.4561
 IR Inten    --      1.0348                 5.8348                 9.5354

                     28                     29                     30
                      A                      A                      A
 Frequencies --    397.0738               414.9509               430.9819
 Red. masses --      4.0441                 6.4577                 4.2113
 Frc consts  --      0.3757                 0.6551                 0.4609
 IR Inten    --     18.7696                 6.8593                16.0763

                     31                     32                     33
                      A                      A                      A
 Frequencies --    438.0539               449.8415               483.6926
 Red. masses --      4.5842                 6.7971                 1.6912
 Frc consts  --      0.5183                 0.8104                 0.2331
 IR Inten    --      1.2682                 8.1588                35.7149

                     34                     35                     36
                      A                      A                      A
 Frequencies --    484.9006               500.3677               529.8445
 Red. masses --      5.9522                 2.2565                 3.9840
 Frc consts  --      0.8246                 0.3329                 0.6590
 IR Inten    --      2.8395               114.1808                13.5383

                     37                     38                     39
                      A                      A                      A
 Frequencies --    551.5232               568.6098               610.2188
 Red. masses --      4.9935                 4.6134                 4.9077
 Frc consts  --      0.8949                 0.8788                 1.0767
 IR Inten    --     14.6978                 6.4667                 2.5461

                     40                     41                     42
                      A                      A                      A
 Frequencies --    634.3617               663.0387               676.0131
 Red. masses --      1.8242                 2.1512                 3.7390
 Frc consts  --      0.4325                 0.5572                 1.0067
 IR Inten    --    126.6523                31.7869                20.4600

                     43                     44                     45
                      A                      A                      A
 Frequencies --    685.3521               708.7599               722.6478
 Red. masses --      5.8540                 5.0919                 3.4971
 Frc consts  --      1.6201                 1.5070                 1.0760
 IR Inten    --      3.6343                13.1526                58.4099

                     46                     47                     48
                      A                      A                      A
 Frequencies --    726.3243               751.7544               779.2955
 Red. masses --      8.2966                 6.6076                 2.7702
 Frc consts  --      2.5788                 2.2001                 0.9912
 IR Inten    --      3.1154                15.5440                17.7058

                     49                     50                     51
                      A                      A                      A
 Frequencies --    783.1303               799.4794               811.0116
 Red. masses --      8.2454                 8.5794                 5.3528
 Frc consts  --      2.9794                 3.2309                 2.0743
 IR Inten    --     11.9471                14.8141                52.6779

                     52                     53                     54
                      A                      A                      A
 Frequencies --    811.9363               842.6855               866.1965
 Red. masses --      2.1801                 1.5729                 2.7315
 Frc consts  --      0.8468                 0.6581                 1.2075
 IR Inten    --     41.8432                 2.8970                13.7367

                     55                     56                     57
                      A                      A                      A
 Frequencies --    921.5248               926.0051               948.5602
 Red. masses --      1.4240                 3.1696                 2.3307
 Frc consts  --      0.7125                 1.6014                 1.2356
 IR Inten    --      0.8769                 0.3369                23.6240

                     58                     59                     60
                      A                      A                      A
 Frequencies --    951.8490               965.1126               984.0206
 Red. masses --      2.5229                 6.5504                 4.2877
 Frc consts  --      1.3468                 3.5948                 2.4462
 IR Inten    --     21.5218                78.2437                40.9076

                     61                     62                     63
                      A                      A                      A
 Frequencies --    996.3799               999.3420              1025.0261
 Red. masses --      2.2503                 1.3148                 5.5232
 Frc consts  --      1.3162                 0.7736                 3.4191
 IR Inten    --     15.9347                 0.5817                13.1181

                     64                     65                     66
                      A                      A                      A
 Frequencies --   1036.3101              1078.9924              1082.4862
 Red. masses --      4.5916                 3.1346                 5.1265
 Frc consts  --      2.9053                 2.1502                 3.5393
 IR Inten    --     54.0259                10.9489               204.4350

                     67                     68                     69
                      A                      A                      A
 Frequencies --   1098.0868              1118.0496              1138.9239
 Red. masses --      2.8091                 1.7443                 1.9701
 Frc consts  --      1.9957                 1.2847                 1.5056
 IR Inten    --      9.4917                32.8618                57.8445

                     70                     71                     72
                      A                      A                      A
 Frequencies --   1147.9997              1159.1539              1165.4860
 Red. masses --      2.1172                 1.7200                 1.6620
 Frc consts  --      1.6439                 1.3616                 1.3301
 IR Inten    --     59.4460                 4.1356                 3.8361

                     73                     74                     75
                      A                      A                      A
 Frequencies --   1186.6362              1197.3619              1212.8879
 Red. masses --      1.4656                 2.1899                 2.4763
 Frc consts  --      1.2159                 1.8498                 2.1463
 IR Inten    --     19.2604                40.7728               134.3292

                     76                     77                     78
                      A                      A                      A
 Frequencies --   1218.6457              1234.6197              1250.2962
 Red. masses --      1.5747                 2.3255                 3.1007
 Frc consts  --      1.3778                 2.0885                 2.8559
 IR Inten    --     37.6872                22.2228                67.5022

                     79                     80                     81
                      A                      A                      A
 Frequencies --   1257.8302              1269.2396              1278.0191
 Red. masses --      1.7449                 2.6380                 1.6008
 Frc consts  --      1.6266                 2.5039                 1.5405
 IR Inten    --     51.6251                64.9929               100.4714

                     82                     83                     84
                      A                      A                      A
 Frequencies --   1308.6107              1316.0951              1333.8599
 Red. masses --      2.1945                 1.8381                 7.9447
 Frc consts  --      2.2142                 1.8758                 8.3282
 IR Inten    --      3.3564                 3.9770                28.5157

                     85                     86                     87
                      A                      A                      A
 Frequencies --   1359.7456              1371.1385              1376.3699
 Red. masses --      3.3553                 3.9493                 1.5681
 Frc consts  --      3.6551                 4.3745                 1.7502
 IR Inten    --     88.0739                 1.3728                66.1051

                     88                     89                     90
                      A                      A                      A
 Frequencies --   1411.0739              1426.8089              1439.5558
 Red. masses --      1.3351                 1.6995                 1.9112
 Frc consts  --      1.5663                 2.0384                 2.3335
 IR Inten    --     25.2830                60.2768               182.2617

                     91                     92                     93
                      A                      A                      A
 Frequencies --   1450.3160              1464.3475              1468.0089
 Red. masses --      1.4018                 1.8896                 1.7713
 Frc consts  --      1.7372                 2.3873                 2.2491
 IR Inten    --      7.4553                84.4194                41.9530

                     94                     95                     96
                      A                      A                      A
 Frequencies --   1486.9323              1494.1572              1499.2393
 Red. masses --      2.3942                 3.0936                 1.2249
 Frc consts  --      3.1188                 4.0691                 1.6222
 IR Inten    --     77.2549                36.9472                38.9988

                     97                     98                     99
                      A                      A                      A
 Frequencies --   1513.4059              1515.1574              1524.4398
 Red. masses --      1.0575                 1.2271                 1.2403
 Frc consts  --      1.4271                 1.6597                 1.6982
 IR Inten    --      4.5780                14.9900                17.5387

                    100                    101                    102
                      A                      A                      A
 Frequencies --   1527.2653              1537.7114              1538.7938
 Red. masses --      1.8693                 1.2065                 1.1027
 Frc consts  --      2.5689                 1.6808                 1.5384
 IR Inten    --      4.9400                69.4863                 5.8214

                    103                    104                    105
                      A                      A                      A
 Frequencies --   1551.4883              1581.7717              1617.5734
 Red. masses --      6.9473                 5.5267                 9.0403
 Frc consts  --      9.8529                 8.1471                13.9368
 IR Inten    --     65.9402               128.7959                85.9806

                    106                    107                    108
                      A                      A                      A
 Frequencies --   1622.4091              1644.6506              1706.7868
 Red. masses --      6.3837                 6.8490                 7.7024
 Frc consts  --      9.9002                10.9150                13.2201
 IR Inten    --     20.3693                60.6140                33.5062

                    109                    110                    111
                      A                      A                      A
 Frequencies --   1753.4491              3055.8692              3072.3926
 Red. masses --     11.1201                 1.0552                 1.0415
 Frc consts  --     20.1440                 5.8056                 5.7925
 IR Inten    --    492.5213                39.4595                44.8236

                    112                    113                    114
                      A                      A                      A
 Frequencies --   3089.3971              3104.5656              3104.6019
 Red. masses --      1.0338                 1.1073                 1.0705
 Frc consts  --      5.8134                 6.2882                 6.0790
 IR Inten    --      9.1398                50.6124                 3.1208

                    115                    116                    117
                      A                      A                      A
 Frequencies --   3143.4682              3170.8630              3173.9815
 Red. masses --      1.0998                 1.1041                 1.1041
 Frc consts  --      6.4030                 6.5408                 6.5535
 IR Inten    --     22.8656                19.0140                14.2405

                    118                    119                    120
                      A                      A                      A
 Frequencies --   3191.8765              3216.9595              3234.9505
 Red. masses --      1.0993                 1.0999                 1.0882
 Frc consts  --      6.5987                 6.7067                 6.7095
 IR Inten    --      8.3685                 0.5571                 2.3261

                    121                    122                    123
                      A                      A                      A
 Frequencies --   3245.3052              3252.4273              3343.0453
 Red. masses --      1.0924                 1.0972                 1.1028
 Frc consts  --      6.7788                 6.8382                 7.2615
 IR Inten    --      1.3503                 2.0192                41.7133

                    124                    125                    126
                      A                      A                      A
 Frequencies --   3550.1287              3654.0653              3770.8844
 Red. masses --      1.0841                 1.0647                 1.0671
 Frc consts  --      8.0502                 8.3760                 8.9401
 IR Inten    --    524.0631               155.7950               120.6392

 - Thermochemistry -
 -------------------
 Temperature   298.150 Kelvin.  Pressure   1.00000 Atm.
 Atom     1 has atomic number  6 and mass  12.00000

 Molecular mass:   390.09691 amu.
 Principal axes and moments of inertia in atomic units:
                           1         2         3
     Eigenvalues --  4682.38763********************
           X            0.99980   0.02002   0.00027
           Y           -0.02002   0.99979  -0.00309
           Z           -0.00034   0.00308   1.00000
 This molecule is an asymmetric top.
 Rotational symmetry number  1.
 Warning -- assumption of classical behavior for rotation
           may cause significant error
 Rotational temperatures (Kelvin)      0.01850     0.00414     0.00362
 Rotational constants (GHZ):           0.38543     0.08627     0.07550
 Zero-point vibrational energy     893237.0 (Joules/Mol)
                                  213.48876 (Kcal/Mol)
 Warning -- explicit consideration of  39 degrees of freedom as
           vibrations may cause significant error
 Vibrational temperatures:     23.05    33.40    49.37    63.35    84.17
          (Kelvin)            123.53   125.41   134.94   179.59   187.86
                              200.19   249.20   273.16   279.27   283.69
                              304.04   312.34   340.63   346.79   411.89
                              424.49   443.26   462.40   481.29   512.34
                              534.68   546.43   571.30   597.02   620.09
                              630.26   647.22   695.93   697.66   719.92
                              762.33   793.52   818.10   877.97   912.70
                              953.96   972.63   986.07  1019.75  1039.73
                             1045.02  1081.61  1121.23  1126.75  1150.27
                             1166.86  1168.20  1212.44  1246.26  1325.87
                             1332.31  1364.77  1369.50  1388.58  1415.79
                             1433.57  1437.83  1474.78  1491.02  1552.43
                             1557.46  1579.90  1608.62  1638.66  1651.72
                             1667.76  1676.87  1707.30  1722.74  1745.08
                             1753.36  1776.34  1798.90  1809.74  1826.15
                             1838.78  1882.80  1893.57  1919.13  1956.37
                             1972.76  1980.29  2030.22  2052.86  2071.20
                             2086.68  2106.87  2112.14  2139.36  2149.76
                             2157.07  2177.45  2179.97  2193.33  2197.39
                             2212.42  2213.98  2232.25  2275.82  2327.33
                             2334.28  2366.29  2455.69  2522.82  4396.71
                             4420.49  4444.95  4466.78  4466.83  4522.75
                             4562.16  4566.65  4592.40  4628.49  4654.37
                             4669.27  4679.52  4809.90  5107.84  5257.38
                             5425.46

 Zero-point correction=                           0.340216 (Hartree/Particle)
 Thermal correction to Energy=                    0.364317
 Thermal correction to Enthalpy=                  0.365261
 Thermal correction to Gibbs Free Energy=         0.284693
 Sum of electronic and zero-point Energies=          -1692.380413
 Sum of electronic and thermal Energies=             -1692.356312
 Sum of electronic and thermal Enthalpies=           -1692.355368
 Sum of electronic and thermal Free Energies=        -1692.435936

                     E (Thermal)             CV                S
                      KCal/Mol        Cal/Mol-Kelvin    Cal/Mol-Kelvin
 Total                  228.613             91.551            169.570
 Electronic               0.000              0.000              0.000
 Translational            0.889              2.981             43.776
 Rotational               0.889              2.981             36.102
 Vibrational            226.835             85.590             89.692
 Vibration     1          0.593              1.986              7.075
 Vibration     2          0.593              1.985              6.338
 Vibration     3          0.594              1.983              5.563
 Vibration     4          0.595              1.980              5.069
 Vibration     5          0.596              1.974              4.507
 Vibration     6          0.601              1.959              3.752
 Vibration     7          0.601              1.958              3.723
 Vibration     8          0.603              1.954              3.579
 Vibration     9          0.610              1.928              3.024
 Vibration    10          0.612              1.923              2.938
 Vibration    11          0.615              1.914              2.816
 Vibration    12          0.627              1.875              2.400
 Vibration    13          0.633              1.854              2.229
 Vibration    14          0.635              1.848              2.188
 Vibration    15          0.637              1.844              2.159
 Vibration    16          0.643              1.824              2.032
 Vibration    17          0.646              1.815              1.983
 Vibration    18          0.656              1.784              1.827
 Vibration    19          0.658              1.778              1.795
 Vibration    20          0.684              1.699              1.496
 Vibration    21          0.689              1.683              1.445
 Vibration    22          0.698              1.658              1.373
 Vibration    23          0.707              1.633              1.303
 Vibration    24          0.716              1.607              1.238
 Vibration    25          0.732              1.563              1.139
 Vibration    26          0.743              1.530              1.073
 Vibration    27          0.750              1.513              1.040
 Vibration    28          0.764              1.476              0.973
 Vibration    29          0.778              1.438              0.909
 Vibration    30          0.792              1.403              0.855
 Vibration    31          0.798              1.387              0.833
 Vibration    32          0.809              1.361              0.796
 Vibration    33          0.840              1.286              0.700
 Vibration    34          0.841              1.284              0.697
 Vibration    35          0.856              1.249              0.657
 Vibration    36          0.885              1.184              0.588
 Vibration    37          0.907              1.136              0.541
 Vibration    38          0.925              1.099              0.507
 Vibration    39          0.969              1.010              0.432

 Optimization completed.
    -- Stationary point found.
 Normal termination of Gaussian 16 at Sun Jul 18 23:13:35 2021.

 ----------------------------------------------------------------------
 #p b3lyp/6-31G(d) scrf=(iefpcm,read,solvent=n-octanol) geom=allcheck g
 uess=read
 ----------------------------------------------------------------------

 Structure from the checkpoint file:  "SET_328_BBB324_conf1.geo_180_315_180.chk"
 ---------------------------------------------
 SET_328_BBB324_conf1.geo_180_315_180 geometry
 ---------------------------------------------
 Charge =  1 Multiplicity = 1

 SCF Done:  E(RB3LYP) =  -1692.72062923     A.U. after    3 cycles
 Normal termination of Gaussian 16 at Sun Jul 18 23:16:26 2021.

 -----------------------------
 #p B3LYP/6-31G* geom=allcheck
 -----------------------------

 Structure from the checkpoint file:  "SET_328_BBB324_conf1.geo_180_315_180.chk"
 ---------------------------------------------
 SET_328_BBB324_conf1.geo_180_315_180 geometry
 ---------------------------------------------
 Charge =  1 Multiplicity = 1

 SCF Done:  E(RB3LYP) =  -1692.62259736     A.U. after   18 cycles
 Normal termination of Gaussian 16 at Sun Jul 18 23:22:23 2021.
 Gaussian 16:  ES64L-G16RevA.03 25-Dec-2016

 --------------------------------------------------------
 #p mp2/aug-cc-pVDZ scf=tight maxdisk=180GB geom=allcheck
 --------------------------------------------------------

 Structure from the checkpoint file:  "SET_328_BBB324_conf1.geo_180_315_180.chk"
 ---------------------------------------------
 SET_328_BBB324_conf1.geo_180_315_180 geometry
 ---------------------------------------------
 Charge =  1 Multiplicity = 1

                         Standard orientation:
 ---------------------------------------------------------------------
 Center     Atomic      Atomic             Coordinates (Angstroms)
 Number     Number       Type             X           Y           Z
 ---------------------------------------------------------------------
      1          6           0       -0.260658    2.302422   -1.069600
      2          1           0       -0.866278    2.899983   -1.746377
      3          1           0        0.471573    1.730450   -1.649148
      4          1           0        0.266384    2.951653   -0.367552
      5          7           0       -1.158597    1.415155   -0.335497
      6          6           0       -0.575214    0.523074    0.665243
      7          1           0       -1.184446    0.519009    1.572495
      8          1           0        0.422773    0.876192    0.919368
      9          6           0       -0.480612   -0.857965    0.100909
     10          6           0        0.558338   -1.651464   -0.315198
     11          6           0        1.986555   -1.408794   -0.248315
     12          7           0        2.873073   -2.245022   -0.733212
     13          8           0        4.084904   -1.615122   -0.445668
     14          6           0        3.791542   -0.465923    0.184266
     15          7           0        2.509588   -0.281021    0.334950
     16          6           0        4.906052    0.458302    0.582931
     17          6           0        4.616649    1.087234    1.949910
     18          1           0        3.636580    1.568465    1.963778
     19          1           0        5.385688    1.834835    2.153485
     20          1           0        4.648780    0.320266    2.725814
     21          8           0        6.097298   -0.302994    0.606903
     22          1           0        6.803593    0.358138    0.472153
     23          6           0        5.051500    1.549295   -0.502591
     24          8           0        6.255266    2.227752   -0.177061
     25          1           0        6.619106    2.622955   -0.984059
     26          1           0        4.186339    2.222194   -0.488361
     27          1           0        5.117205    1.072922   -1.486542
     28          7           0       -0.005705   -2.796831   -0.851801
     29          6           0       -1.329510   -2.716017   -0.783196
     30          1           0       -2.025112   -3.454583   -1.143275
     31          7           0       -1.650503   -1.547063   -0.206268
     32          6           0       -2.970541   -1.100847    0.138377
     33          6           0       -3.855205   -2.038879    0.666992
     34          1           0       -3.538532   -3.063996    0.813842
     35          6           0       -5.132163   -1.632064    1.037420
     36          1           0       -5.830337   -2.350282    1.450716
     37          6           0       -5.501001   -0.295850    0.911016
     38          1           0       -6.480761    0.040373    1.226476
     39          6           0       -4.602036    0.627616    0.382152
     40         17           0       -5.122068    2.292984    0.297551
     41          6           0       -3.312966    0.253082   -0.036188
     42          6           0       -2.439325    1.247316   -0.781238
     43          8           0       -2.905178    1.860277   -1.733503
     44          1           0        0.500869   -3.588362   -1.251108
 ---------------------------------------------------------------------

 SCF Done:  E(RHF) =  -1684.76156106     A.U. after   19 cycles
 E2 =    -0.4115736623D+01 EUMP2 =    -0.16888772976845D+04

 The electronic state is 1-A.
 Alpha  occ. eigenvalues -- -104.94258 -20.79408 -20.68626 -20.66745 -20.64977
 Alpha  occ. eigenvalues --  -15.84298 -15.84035 -15.77105 -15.72551 -15.71173
 Alpha  occ. eigenvalues --  -11.54148 -11.49196 -11.49037 -11.47230 -11.47163
 Alpha  occ. eigenvalues --  -11.47049 -11.45895 -11.44470 -11.43185 -11.42488
 Alpha  occ. eigenvalues --  -11.41127 -11.40292 -11.39721 -11.39069 -11.38314
 Alpha  occ. eigenvalues --  -11.37419 -11.32411 -10.66818  -8.13601  -8.13244
 Alpha  occ. eigenvalues --   -8.13231  -1.65175  -1.58558  -1.50747  -1.49713
 Alpha  occ. eigenvalues --   -1.46061  -1.44225  -1.39390  -1.38122  -1.32308
 Alpha  occ. eigenvalues --   -1.30813  -1.25606  -1.23700  -1.19264  -1.16287
 Alpha  occ. eigenvalues --   -1.14299  -1.13374  -1.08166  -1.07074  -1.05507
 Alpha  occ. eigenvalues --   -1.04339  -1.00723  -0.99021  -0.96691  -0.95196
 Alpha  occ. eigenvalues --   -0.93357  -0.90699  -0.89027  -0.85634  -0.84991
 Alpha  occ. eigenvalues --   -0.84422  -0.83705  -0.82614  -0.82052  -0.81095
 Alpha  occ. eigenvalues --   -0.79396  -0.78713  -0.78002  -0.77383  -0.77029
 Alpha  occ. eigenvalues --   -0.75639  -0.74631  -0.72927  -0.71448  -0.71087
 Alpha  occ. eigenvalues --   -0.70774  -0.69754  -0.69544  -0.68870  -0.67473
 Alpha  occ. eigenvalues --   -0.66477  -0.65691  -0.65621  -0.65492  -0.64412
 Alpha  occ. eigenvalues --   -0.63911  -0.63513  -0.62979  -0.61411  -0.60235
 Alpha  occ. eigenvalues --   -0.59510  -0.58284  -0.56626  -0.56390  -0.56131
 Alpha  occ. eigenvalues --   -0.54399  -0.53132  -0.50539  -0.49199  -0.48046
 Alpha  occ. eigenvalues --   -0.46427
 Alpha virt. eigenvalues --   -0.07527  -0.07419  -0.05476  -0.04982  -0.04872
 Alpha virt. eigenvalues --   -0.04265  -0.04026  -0.03612  -0.03094  -0.02851
 Alpha virt. eigenvalues --   -0.02420  -0.01965  -0.01577  -0.01273  -0.00570

 Mulliken charges:
               1
     1  C    0.800573
     2  H   -0.223571
     3  H   -0.042153
     4  H   -0.108330
     5  N   -0.574041
     6  C    1.027030
     7  H   -0.010668
     8  H   -0.241882
     9  C   -0.042543
    10  C    0.696781
    11  C    0.422164
    12  N   -0.320931
    13  O   -0.915322
    14  C    0.789715
    15  N   -0.493954
    16  C   -0.446732
    17  C    0.903333
    18  H    0.035959
    19  H    0.019290
    20  H    0.018702
    21  O   -0.923170
    22  H    0.200678
    23  C    1.598440
    24  O   -0.797757
    25  H    0.183938
    26  H   -0.152109
    27  H   -0.156324
    28  N   -0.544074
    29  C    0.674575
    30  H   -0.324851
    31  N   -0.891216
    32  C   -0.255325
    33  C    0.992107
    34  H   -0.705350
    35  C    0.473944
    36  H   -0.447616
    37  C    0.760950
    38  H   -0.433520
    39  C   -0.768806
    40  Cl  -0.309816
    41  C    1.637514
    42  C    0.771617
    43  O   -0.843442
    44  H   -0.033807
 Sum of Mulliken charges =   1.00000

 Dipole moment (field-independent basis, Debye):
    X=             -2.0062    Y=             -6.4717    Z=              0.1189  Tot=              6.7766
 Quadrupole moment (field-independent basis, Debye-Ang):
   XX=           -105.9090   YY=           -126.8543   ZZ=           -158.5375
   XY=             44.7440   XZ=            -21.2973   YZ=              5.5078

 Normal termination of Gaussian 16 at Mon Jul 19 03:22:11 2021.
