 Gaussian 16, Revision A.03,

 ---------------------------------------------------------------
 #p b3lyp/6-31G(d) opt freq scrf=(iefpcm,read,solvent=n-octanol)
 ---------------------------------------------------------------

 ---------------------------------------------
 SET_328_BBB301_conf1.geo_090_285_255 geometry
 ---------------------------------------------
 Symbolic Z-matrix:
 Charge =  1 Multiplicity = 1

 SCF Done:  E(RB3LYP) =  -788.803098794     A.U. after   12 cycles
 SCF Done:  E(RB3LYP) =  -788.854363182     A.U. after   11 cycles
 SCF Done:  E(RB3LYP) =  -788.851522727     A.U. after   13 cycles
 SCF Done:  E(RB3LYP) =  -788.888362649     A.U. after   11 cycles
 SCF Done:  E(RB3LYP) =  -788.895789213     A.U. after   13 cycles
 SCF Done:  E(RB3LYP) =  -788.895691935     A.U. after   13 cycles
 SCF Done:  E(RB3LYP) =  -788.901834826     A.U. after   10 cycles
 SCF Done:  E(RB3LYP) =  -788.902636368     A.U. after   11 cycles
 SCF Done:  E(RB3LYP) =  -788.903422973     A.U. after   11 cycles
 SCF Done:  E(RB3LYP) =  -788.903590601     A.U. after   11 cycles
 SCF Done:  E(RB3LYP) =  -788.910385848     A.U. after    8 cycles
 SCF Done:  E(RB3LYP) =  -788.910367897     A.U. after    8 cycles
 SCF Done:  E(RB3LYP) =  -788.910372415     A.U. after    7 cycles
 SCF Done:  E(RB3LYP) =  -788.910384908     A.U. after    8 cycles
 SCF Done:  E(RB3LYP) =  -788.910385835     A.U. after    7 cycles
 SCF Done:  E(RB3LYP) =  -788.910370226     A.U. after    8 cycles
 Optimization completed.
    -- Stationary point found.
 Normal termination of Gaussian 16 at Sun Jul 18 17:14:45 2021.

 --------------------------------------------------------------------
 #P Geom=AllCheck Guess=TCheck SCRF=Check GenChk RB3LYP/6-31G(d) Freq
 --------------------------------------------------------------------

 Structure from the checkpoint file:  "SET_328_BBB301_conf1.geo_090_285_255.chk"
 ---------------------------------------------
 SET_328_BBB301_conf1.geo_090_285_255 geometry
 ---------------------------------------------
 Charge =  1 Multiplicity = 1

 SCF Done:  E(RB3LYP) =  -788.910370226     A.U. after    1 cycles

  Exact polarizability: 217.768 -12.465 186.753 -20.385 -14.750 139.286
 Approx polarizability: 246.285 -17.726 236.969 -30.588 -21.719 172.927

                      1                      2                      3
                      A                      A                      A
 Frequencies --     49.1930                66.0135                85.8313
 Red. masses --      5.3166                 4.2650                 3.1160
 Frc consts  --      0.0076                 0.0110                 0.0135
 IR Inten    --      3.6584                 1.3923                 2.7961

                      4                      5                      6
                      A                      A                      A
 Frequencies --     97.5123               129.3158               151.8078
 Red. masses --      4.1750                 4.4834                 4.4025
 Frc consts  --      0.0234                 0.0442                 0.0598
 IR Inten    --      3.1354                 6.1361                 5.6362

                      7                      8                      9
                      A                      A                      A
 Frequencies --    179.1872               188.9468               209.7520
 Red. masses --      4.4091                 3.4466                 3.2778
 Frc consts  --      0.0834                 0.0725                 0.0850
 IR Inten    --     13.1293                 3.6758                 8.5558

                     10                     11                     12
                      A                      A                      A
 Frequencies --    246.5307               273.4869               292.3273
 Red. masses --      3.4658                 3.4975                 1.1943
 Frc consts  --      0.1241                 0.1541                 0.0601
 IR Inten    --      9.1628                 5.4891                 1.4060

                     13                     14                     15
                      A                      A                      A
 Frequencies --    304.4351               311.4461               327.1220
 Red. masses --      2.1923                 1.6384                 1.1586
 Frc consts  --      0.1197                 0.0936                 0.0730
 IR Inten    --      6.9021                 1.2612                 0.8101

                     16                     17                     18
                      A                      A                      A
 Frequencies --    348.1013               363.2626               370.5280
 Red. masses --      2.7807                 1.9003                 4.1330
 Frc consts  --      0.1985                 0.1477                 0.3343
 IR Inten    --      9.7435                 1.6938                13.4336

                     19                     20                     21
                      A                      A                      A
 Frequencies --    380.4161               390.3776               410.8233
 Red. masses --      1.7155                 1.3204                 2.7382
 Frc consts  --      0.1463                 0.1186                 0.2723
 IR Inten    --      7.6833               181.7953                53.4550

                     22                     23                     24
                      A                      A                      A
 Frequencies --    428.8828               451.3718               462.1011
 Red. masses --      1.1715                 2.5535                 1.1164
 Frc consts  --      0.1270                 0.3065                 0.1405
 IR Inten    --    194.9904                 2.9016               183.8498

                     25                     26                     27
                      A                      A                      A
 Frequencies --    480.0315               490.9917               497.8104
 Red. masses --      3.3293                 2.6943                 2.7034
 Frc consts  --      0.4520                 0.3827                 0.3947
 IR Inten    --     15.9151                11.0926                16.2570

                     28                     29                     30
                      A                      A                      A
 Frequencies --    517.5534               530.5896               577.1252
 Red. masses --      2.7184                 3.5128                 3.6841
 Frc consts  --      0.4290                 0.5827                 0.7230
 IR Inten    --      9.7395                 5.1164                 3.9141

                     31                     32                     33
                      A                      A                      A
 Frequencies --    632.1601               684.4653               708.8752
 Red. masses --      4.9284                 4.9347                 3.8865
 Frc consts  --      1.1604                 1.3621                 1.1507
 IR Inten    --      2.8143                11.2144                15.0250

                     34                     35                     36
                      A                      A                      A
 Frequencies --    764.4161               786.3523               800.9551
 Red. masses --      4.3794                 4.4317                 2.7648
 Frc consts  --      1.5077                 1.6146                 1.0450
 IR Inten    --      7.8211                11.7772                26.6894

                     37                     38                     39
                      A                      A                      A
 Frequencies --    833.8445               882.1547               891.0031
 Red. masses --      1.6811                 2.9080                 2.2690
 Frc consts  --      0.6887                 1.3333                 1.0613
 IR Inten    --     27.9679                19.2403                 5.0759

                     40                     41                     42
                      A                      A                      A
 Frequencies --    905.2390               938.3907               942.8195
 Red. masses --      1.8090                 1.3191                 1.4151
 Frc consts  --      0.8734                 0.6844                 0.7411
 IR Inten    --      5.7480                 0.3677                 1.1676

                     43                     44                     45
                      A                      A                      A
 Frequencies --    947.1212               965.3090               966.4820
 Red. masses --      1.6157                 2.0648                 1.5304
 Frc consts  --      0.8539                 1.1336                 0.8422
 IR Inten    --      1.1703                15.3678                 5.2048

                     46                     47                     48
                      A                      A                      A
 Frequencies --    987.2974               999.0932              1016.3423
 Red. masses --      1.3727                 1.7816                 2.1642
 Frc consts  --      0.7883                 1.0478                 1.3171
 IR Inten    --     10.9858                19.4464                39.5937

                     49                     50                     51
                      A                      A                      A
 Frequencies --   1048.8260              1064.7197              1091.0479
 Red. masses --      1.8340                 5.3675                 2.7123
 Frc consts  --      1.1886                 3.5850                 1.9023
 IR Inten    --      5.6160               113.8877                80.0118

                     52                     53                     54
                      A                      A                      A
 Frequencies --   1097.9805              1126.4212              1138.3726
 Red. masses --      1.7494                 1.5497                 2.2367
 Frc consts  --      1.2426                 1.1585                 1.7078
 IR Inten    --     65.3737                13.0274               128.2935

                     55                     56                     57
                      A                      A                      A
 Frequencies --   1192.4554              1211.8283              1223.5049
 Red. masses --      1.5250                 1.2392                 1.4344
 Frc consts  --      1.2777                 1.0722                 1.2651
 IR Inten    --      1.7605                40.7836               222.7388

                     58                     59                     60
                      A                      A                      A
 Frequencies --   1226.0330              1241.3030              1266.8649
 Red. masses --      1.5098                 1.4235                 2.1201
 Frc consts  --      1.3371                 1.2923                 2.0047
 IR Inten    --     54.5216                13.4704                25.6581

                     61                     62                     63
                      A                      A                      A
 Frequencies --   1270.6141              1282.3735              1305.9879
 Red. masses --      1.6062                 2.3721                 3.2990
 Frc consts  --      1.5279                 2.2984                 3.3153
 IR Inten    --     37.0494                17.7419               103.5705

                     64                     65                     66
                      A                      A                      A
 Frequencies --   1333.0234              1341.5507              1350.4269
 Red. masses --      1.6777                 1.4849                 1.5860
 Frc consts  --      1.7564                 1.5746                 1.7041
 IR Inten    --      8.1601                11.3360               121.0019

                     67                     68                     69
                      A                      A                      A
 Frequencies --   1385.7143              1392.0560              1405.1006
 Red. masses --      2.4926                 1.4553                 1.3143
 Frc consts  --      2.8200                 1.6615                 1.5289
 IR Inten    --     45.2597                11.3882                 7.6802

                     70                     71                     72
                      A                      A                      A
 Frequencies --   1420.2685              1444.9640              1447.9164
 Red. masses --      1.2482                 1.2856                 1.2535
 Frc consts  --      1.4835                 1.5816                 1.5483
 IR Inten    --    129.8106               109.6411                46.6806

                     73                     74                     75
                      A                      A                      A
 Frequencies --   1455.5957              1472.5069              1478.2154
 Red. masses --      1.2340                 1.2019                 3.0682
 Frc consts  --      1.5404                 1.5354                 3.9501
 IR Inten    --     23.8232                28.9453                58.8940

                     76                     77                     78
                      A                      A                      A
 Frequencies --   1493.2944              1516.1800              1521.0280
 Red. masses --      1.1074                 1.0480                 1.0962
 Frc consts  --      1.4550                 1.4195                 1.4943
 IR Inten    --     10.1653                 3.6402                 0.3351

                     79                     80                     81
                      A                      A                      A
 Frequencies --   1522.1977              1528.4664              1537.7365
 Red. masses --      1.0514                 1.1157                 1.0550
 Frc consts  --      1.4353                 1.5357                 1.4699
 IR Inten    --      9.0967                11.7415                11.1556

                     82                     83                     84
                      A                      A                      A
 Frequencies --   1541.7084              1552.8123              1559.7033
 Red. masses --      1.0973                 1.1077                 2.2530
 Frc consts  --      1.5367                 1.5737                 3.2293
 IR Inten    --     93.4846                49.6155                52.1866

                     85                     86                     87
                      A                      A                      A
 Frequencies --   1566.9380              1603.9658              1655.1043
 Red. masses --      1.0933                 1.1109                 6.0617
 Frc consts  --      1.5815                 1.6840                 9.7834
 IR Inten    --     13.3413                41.2132                 6.9810

                     88                     89                     90
                      A                      A                      A
 Frequencies --   1670.5771              1748.4366              3025.7698
 Red. masses --      6.2439                 1.0618                 1.0697
 Frc consts  --     10.2668                 1.9124                 5.7699
 IR Inten    --     58.3793                72.9863                77.0580

                     91                     92                     93
                      A                      A                      A
 Frequencies --   3071.6568              3082.6909              3086.8719
 Red. masses --      1.0849                 1.0371                 1.0382
 Frc consts  --      6.0308                 5.8066                 5.8288
 IR Inten    --     24.9884                11.6837                13.5626

                     94                     95                     96
                      A                      A                      A
 Frequencies --   3102.0971              3123.9971              3153.7378
 Red. masses --      1.0370                 1.0944                 1.0955
 Frc consts  --      5.8793                 6.2929                 6.4199
 IR Inten    --      6.1241                40.5588                 3.2843

                     97                     98                     99
                      A                      A                      A
 Frequencies --   3155.2533              3159.6317              3164.8850
 Red. masses --      1.0889                 1.0828                 1.0984
 Frc consts  --      6.3871                 6.3688                 6.4825
 IR Inten    --     15.1921                15.0898                15.0323

                    100                    101                    102
                      A                      A                      A
 Frequencies --   3167.7001              3174.0994              3182.9302
 Red. masses --      1.1027                 1.0992                 1.1007
 Frc consts  --      6.5195                 6.5249                 6.5701
 IR Inten    --      2.4109                37.2506                20.2867

                    103                    104                    105
                      A                      A                      A
 Frequencies --   3208.6336              3217.9481              3223.5375
 Red. masses --      1.0886                 1.1064                 1.0896
 Frc consts  --      6.6031                 6.7500                 6.6710
 IR Inten    --     22.8777                 2.6228                15.5256

                    106                    107                    108
                      A                      A                      A
 Frequencies --   3225.8555              3420.5156              3482.8144
 Red. masses --      1.0943                 1.0596                 1.0840
 Frc consts  --      6.7093                 7.3044                 7.7470
 IR Inten    --     13.2410                88.9457               119.0386

                    109                    110                    111
                      A                      A                      A
 Frequencies --   3717.5552              3741.1294              3742.3826
 Red. masses --      1.0654                 1.0664                 1.0665
 Frc consts  --      8.6751                 8.7940                 8.8003
 IR Inten    --     86.4038               146.5307                41.8224

 - Thermochemistry -
 -------------------
 Temperature   298.150 Kelvin.  Pressure   1.00000 Atm.
 Atom     1 has atomic number  6 and mass  12.00000

 Molecular mass:   240.15997 amu.
 Principal axes and moments of inertia in atomic units:
                           1         2         3
     Eigenvalues --  2121.451108845.421359391.15537
           X            0.99995   0.00861   0.00469
           Y           -0.00856   0.99992  -0.00958
           Z           -0.00477   0.00954   0.99994
 This molecule is an asymmetric top.
 Rotational symmetry number  1.
 Warning -- assumption of classical behavior for rotation
           may cause significant error
 Rotational temperatures (Kelvin)      0.04083     0.00979     0.00922
 Rotational constants (GHZ):           0.85071     0.20403     0.19217
 Zero-point vibrational energy     918915.7 (Joules/Mol)
                                  219.62612 (Kcal/Mol)
 Warning -- explicit consideration of  30 degrees of freedom as
           vibrations may cause significant error
 Vibrational temperatures:     70.78    94.98   123.49   140.30   186.06
          (Kelvin)            218.42   257.81   271.85   301.79   354.70
                              393.49   420.59   438.01   448.10   470.66
                              500.84   522.65   533.11   547.33   561.67
                              591.08   617.07   649.42   664.86   690.66
                              706.43   716.24   744.64   763.40   830.35
                              909.54   984.79  1019.91  1099.82  1131.39
                             1152.40  1199.72  1269.22  1281.95  1302.44
                             1350.13  1356.51  1362.70  1388.86  1390.55
                             1420.50  1437.47  1462.29  1509.03  1531.89
                             1569.77  1579.75  1620.67  1637.86  1715.68
                             1743.55  1760.35  1763.99  1785.96  1822.74
                             1828.13  1845.05  1879.03  1917.92  1930.19
                             1942.96  1993.73  2002.86  2021.63  2043.45
                             2078.98  2083.23  2094.28  2118.61  2126.82
                             2148.52  2181.44  2188.42  2190.10  2199.12
                             2212.46  2218.17  2234.15  2244.07  2254.47
                             2307.75  2381.33  2403.59  2515.61  4353.41
                             4419.43  4435.30  4441.32  4463.23  4494.74
                             4537.53  4539.71  4546.01  4553.56  4557.61
                             4566.82  4579.53  4616.51  4629.91  4637.95
                             4641.29  4921.36  5010.99  5348.73  5382.65
                             5384.45

 Zero-point correction=                           0.349997 (Hartree/Particle)
 Thermal correction to Energy=                    0.367277
 Thermal correction to Enthalpy=                  0.368221
 Thermal correction to Gibbs Free Energy=         0.306488
 Sum of electronic and zero-point Energies=           -788.560374
 Sum of electronic and thermal Energies=              -788.543093
 Sum of electronic and thermal Enthalpies=            -788.542149
 Sum of electronic and thermal Free Energies=         -788.603883

                     E (Thermal)             CV                S
                      KCal/Mol        Cal/Mol-Kelvin    Cal/Mol-Kelvin
 Total                  230.470             69.288            129.929
 Electronic               0.000              0.000              0.000
 Translational            0.889              2.981             42.330
 Rotational               0.889              2.981             33.532
 Vibrational            228.692             63.327             54.067
 Vibration     1          0.595              1.978              4.850
 Vibration     2          0.597              1.970              4.269
 Vibration     3          0.601              1.959              3.753
 Vibration     4          0.603              1.951              3.503
 Vibration     5          0.612              1.924              2.956
 Vibration     6          0.619              1.901              2.649
 Vibration     7          0.629              1.868              2.337
 Vibration     8          0.633              1.855              2.238
 Vibration     9          0.642              1.826              2.046
 Vibration    10          0.661              1.769              1.755
 Vibration    11          0.676              1.722              1.574
 Vibration    12          0.688              1.688              1.460
 Vibration    13          0.695              1.665              1.392
 Vibration    14          0.700              1.652              1.355
 Vibration    15          0.711              1.621              1.274
 Vibration    16          0.726              1.579              1.175
 Vibration    17          0.737              1.548              1.108
 Vibration    18          0.743              1.533              1.078
 Vibration    19          0.750              1.512              1.038
 Vibration    20          0.758              1.491              0.999
 Vibration    21          0.775              1.447              0.924
 Vibration    22          0.790              1.407              0.862
 Vibration    23          0.810              1.358              0.792
 Vibration    24          0.820              1.334              0.760
 Vibration    25          0.836              1.294              0.710
 Vibration    26          0.847              1.270              0.681
 Vibration    27          0.853              1.255              0.664
 Vibration    28          0.873              1.211              0.616
 Vibration    29          0.886              1.182              0.586
 Vibration    30          0.934              1.081              0.491

 Optimization completed.
    -- Stationary point found.
 Normal termination of Gaussian 16 at Sun Jul 18 17:54:21 2021.

 ----------------------------------------------------------------------
 #p b3lyp/6-31G(d) scrf=(iefpcm,read,solvent=n-octanol) geom=allcheck g
 uess=read
 ----------------------------------------------------------------------

 Structure from the checkpoint file:  "SET_328_BBB301_conf1.geo_090_285_255.chk"
 ---------------------------------------------
 SET_328_BBB301_conf1.geo_090_285_255 geometry
 ---------------------------------------------
 Charge =  1 Multiplicity = 1

 SCF Done:  E(RB3LYP) =  -788.912500080     A.U. after    1 cycles
 Normal termination of Gaussian 16 at Sun Jul 18 17:55:17 2021.

 -----------------------------
 #p B3LYP/6-31G* geom=allcheck
 -----------------------------

 Structure from the checkpoint file:  "SET_328_BBB301_conf1.geo_090_285_255.chk"
 ---------------------------------------------
 SET_328_BBB301_conf1.geo_090_285_255 geometry
 ---------------------------------------------
 Charge =  1 Multiplicity = 1

 SCF Done:  E(RB3LYP) =  -788.808640592     A.U. after   13 cycles
 Normal termination of Gaussian 16 at Sun Jul 18 17:57:32 2021.
 Gaussian 16:  ES64L-G16RevA.03 25-Dec-2016

 --------------------------------------------------------
 #p mp2/aug-cc-pVDZ scf=tight maxdisk=180GB geom=allcheck
 --------------------------------------------------------

 Structure from the checkpoint file:  "SET_328_BBB301_conf1.geo_090_285_255.chk"
 ---------------------------------------------
 SET_328_BBB301_conf1.geo_090_285_255 geometry
 ---------------------------------------------
 Charge =  1 Multiplicity = 1

                         Standard orientation:
 ---------------------------------------------------------------------
 Center     Atomic      Atomic             Coordinates (Angstroms)
 Number     Number       Type             X           Y           Z
 ---------------------------------------------------------------------
      1          6           0        3.788890    0.871263    2.006859
      2          1           0        3.791153   -0.024938    2.634343
      3          1           0        2.983677    1.531848    2.340804
      4          1           0        4.733741    1.392874    2.172355
      5          6           0        3.660330    0.529074    0.518035
      6          6           0        3.613949    1.797972   -0.335740
      7          1           0        2.806636    2.471048   -0.032556
      8          1           0        3.507857    1.575986   -1.398929
      9          1           0        4.554795    2.336523   -0.209404
     10          6           0        4.784446   -0.403048    0.062444
     11          1           0        4.715217   -0.645095   -0.999196
     12          1           0        4.802475   -1.335141    0.632306
     13          1           0        5.741391    0.098163    0.221410
     14          7           0        2.314976   -0.224126    0.366022
     15          1           0        1.554448    0.373898    0.719025
     16          6           0        1.956698   -0.722768   -1.005314
     17          1           0        2.738523   -1.419061   -1.299253
     18          1           0        1.970287    0.130517   -1.680784
     19          6           0        0.597220   -1.444126   -1.034156
     20          8           0        0.625634   -2.575386   -0.170902
     21          1           0        0.324501   -2.303694    0.711762
     22          1           0        0.531898   -1.865214   -2.043382
     23          6           0       -0.611033   -0.547797   -0.790155
     24          6           0       -1.750826   -1.081127   -0.171463
     25          1           0       -1.743357   -2.117846    0.145421
     26          6           0       -2.904436   -0.329621    0.030093
     27          6           0       -4.135609   -0.913198    0.684988
     28          8           0       -4.559780   -0.183490    1.830190
     29          1           0       -4.795988    0.702186    1.506385
     30          1           0       -3.916759   -1.928195    1.024432
     31          1           0       -4.946202   -0.981188   -0.053816
     32          6           0       -2.915551    1.006174   -0.403965
     33          8           0       -4.069309    1.705505   -0.178999
     34          1           0       -3.990437    2.613376   -0.515594
     35          6           0       -1.799184    1.558843   -1.031470
     36          1           0       -1.816677    2.588647   -1.372353
     37          6           0       -0.659173    0.779859   -1.225462
     38          1           0        0.186426    1.225763   -1.736463
     39          1           0        2.334872   -1.033603    1.000855
 ---------------------------------------------------------------------

 SCF Done:  E(RHF) =  -784.022475477     A.U. after   16 cycles
 E2 =    -0.2636299408D+01 EUMP2 =    -0.78665877488451D+03

 The electronic state is 1-A.
 Alpha  occ. eigenvalues --  -20.71916 -20.71726 -20.64412 -15.85137 -11.46632
 Alpha  occ. eigenvalues --  -11.44985 -11.44732 -11.42791 -11.38355 -11.38332
 Alpha  occ. eigenvalues --  -11.38097 -11.37701 -11.37602 -11.37380 -11.36469
 Alpha  occ. eigenvalues --  -11.36358 -11.35671  -1.52552  -1.52001  -1.47218
 Alpha  occ. eigenvalues --   -1.43912  -1.28195  -1.25187  -1.18815  -1.15663
 Alpha  occ. eigenvalues --   -1.13226  -1.10552  -1.10076  -1.02399  -1.01895
 Alpha  occ. eigenvalues --   -0.96640  -0.95491  -0.92793  -0.91688  -0.85707
 Alpha  occ. eigenvalues --   -0.84634  -0.83040  -0.82283  -0.79813  -0.77526
 Alpha  occ. eigenvalues --   -0.76442  -0.76071  -0.75417  -0.74125  -0.73834
 Alpha  occ. eigenvalues --   -0.72296  -0.71849  -0.70356  -0.69561  -0.69522
 Alpha  occ. eigenvalues --   -0.69169  -0.68337  -0.67851  -0.67536  -0.66196
 Alpha  occ. eigenvalues --   -0.64265  -0.64192  -0.63682  -0.62218  -0.61196
 Alpha  occ. eigenvalues --   -0.59040  -0.58130  -0.53017  -0.46012  -0.43343
 Alpha virt. eigenvalues --   -0.07503  -0.06251  -0.05669  -0.04898  -0.04009
 Alpha virt. eigenvalues --   -0.03802  -0.03379  -0.03235  -0.02982  -0.02374
 Alpha virt. eigenvalues --   -0.01933  -0.01834  -0.01061  -0.00711  -0.00470

 Mulliken charges:
               1
     1  C    1.328839
     2  H    0.004743
     3  H    0.002144
     4  H    0.040498
     5  C   -3.422805
     6  C    1.243482
     7  H   -0.007572
     8  H   -0.023251
     9  H   -0.024526
    10  C    1.344049
    11  H   -0.021187
    12  H   -0.012637
    13  H   -0.008764
    14  N   -0.611237
    15  H    0.201645
    16  C    1.061319
    17  H   -0.230297
    18  H   -0.248286
    19  C    0.720879
    20  O   -0.760348
    21  H    0.152352
    22  H   -0.139669
    23  C    0.512504
    24  C    0.375505
    25  H   -0.807112
    26  C   -0.022539
    27  C    1.212083
    28  O   -0.724333
    29  H    0.198534
    30  H   -0.265734
    31  H    0.051913
    32  C    1.131861
    33  O   -1.062672
    34  H    0.252501
    35  C    0.053596
    36  H   -0.676339
    37  C    0.695726
    38  H   -0.728980
    39  H    0.214118
 Sum of Mulliken charges =   1.00000

 Dipole moment (field-independent basis, Debye):
    X=             10.3050    Y=              3.1051    Z=             -1.0147  Tot=             10.8104
 Quadrupole moment (field-independent basis, Debye-Ang):
   XX=            -55.1092   YY=            -89.1679   ZZ=            -99.3670
   XY=             -4.1353   XZ=             13.6102   YZ=             -3.3230

 Normal termination of Gaussian 16 at Sun Jul 18 19:02:52 2021.
