 Gaussian 16, Revision A.03,

 ---------------------------------------------------------------
 #p b3lyp/6-31G(d) opt freq scrf=(iefpcm,read,solvent=n-octanol)
 ---------------------------------------------------------------

 ---------------------------------------------
 SET_328_BBB301_conf1.geo_165_105_270 geometry
 ---------------------------------------------
 Symbolic Z-matrix:
 Charge =  1 Multiplicity = 1

 SCF Done:  E(RB3LYP) =  -788.852100584     A.U. after   12 cycles
 SCF Done:  E(RB3LYP) =  -788.887832219     A.U. after   11 cycles
 SCF Done:  E(RB3LYP) =  -788.888404775     A.U. after   12 cycles
 SCF Done:  E(RB3LYP) =  -788.906644748     A.U. after   11 cycles
 SCF Done:  E(RB3LYP) =  -788.908368071     A.U. after   11 cycles
 SCF Done:  E(RB3LYP) =  -788.909630577     A.U. after   11 cycles
 SCF Done:  E(RB3LYP) =  -788.910244861     A.U. after   10 cycles
 SCF Done:  E(RB3LYP) =  -788.910573016     A.U. after   11 cycles
 SCF Done:  E(RB3LYP) =  -788.911517967     A.U. after   10 cycles
 SCF Done:  E(RB3LYP) =  -788.912104266     A.U. after   13 cycles
 SCF Done:  E(RB3LYP) =  -788.915164056     A.U. after    8 cycles
 SCF Done:  E(RB3LYP) =  -788.915136980     A.U. after    8 cycles
 SCF Done:  E(RB3LYP) =  -788.915137002     A.U. after    7 cycles
 SCF Done:  E(RB3LYP) =  -788.915162826     A.U. after    8 cycles
 SCF Done:  E(RB3LYP) =  -788.915164729     A.U. after    7 cycles
 SCF Done:  E(RB3LYP) =  -788.915140433     A.U. after    8 cycles
 Optimization completed.
    -- Stationary point found.
 Normal termination of Gaussian 16 at Sun Jul 18 17:10:02 2021.

 --------------------------------------------------------------------
 #P Geom=AllCheck Guess=TCheck SCRF=Check GenChk RB3LYP/6-31G(d) Freq
 --------------------------------------------------------------------

 Structure from the checkpoint file:  "SET_328_BBB301_conf1.geo_165_105_270.chk"
 ---------------------------------------------
 SET_328_BBB301_conf1.geo_165_105_270 geometry
 ---------------------------------------------
 Charge =  1 Multiplicity = 1

 SCF Done:  E(RB3LYP) =  -788.915140433     A.U. after    1 cycles

  Exact polarizability: 225.654   4.196 185.071  24.865  -8.132 136.958
 Approx polarizability: 252.167   3.880 235.519  34.848 -13.347 168.202

                      1                      2                      3
                      A                      A                      A
 Frequencies --     48.7843                59.4750                67.5469
 Red. masses --      4.8964                 4.1450                 3.3484
 Frc consts  --      0.0069                 0.0086                 0.0090
 IR Inten    --      3.4142                 0.5687                 0.2347

                      4                      5                      6
                      A                      A                      A
 Frequencies --     79.1522               121.0066               139.1446
 Red. masses --      3.1463                 3.4602                 4.4525
 Frc consts  --      0.0116                 0.0299                 0.0508
 IR Inten    --      8.4972                 2.5219                 1.9158

                      7                      8                      9
                      A                      A                      A
 Frequencies --    156.0040               179.7992               211.4727
 Red. masses --      4.0168                 2.3380                 3.7404
 Frc consts  --      0.0576                 0.0445                 0.0986
 IR Inten    --      3.1381                11.3218                 0.7214

                     10                     11                     12
                      A                      A                      A
 Frequencies --    229.0563               248.7466               262.2352
 Red. masses --      3.1443                 2.2965                 1.2625
 Frc consts  --      0.0972                 0.0837                 0.0512
 IR Inten    --     23.4074                14.9749               203.0974

                     13                     14                     15
                      A                      A                      A
 Frequencies --    269.7838               273.9566               289.6704
 Red. masses --      1.2705                 1.3301                 2.1409
 Frc consts  --      0.0545                 0.0588                 0.1058
 IR Inten    --     19.0903                52.8340                18.8158

                     16                     17                     18
                      A                      A                      A
 Frequencies --    309.5526               331.0193               331.8357
 Red. masses --      1.0885                 4.0307                 1.3524
 Frc consts  --      0.0615                 0.2602                 0.0877
 IR Inten    --      0.3223                42.7053                 8.0145

                     19                     20                     21
                      A                      A                      A
 Frequencies --    337.1997               362.2154               368.7363
 Red. masses --      1.9289                 2.1193                 1.8916
 Frc consts  --      0.1292                 0.1638                 0.1515
 IR Inten    --     35.5519                66.6746               107.0600

                     22                     23                     24
                      A                      A                      A
 Frequencies --    373.0869               421.0151               452.2123
 Red. masses --      1.7685                 3.4384                 3.1363
 Frc consts  --      0.1450                 0.3591                 0.3779
 IR Inten    --     12.4127                 1.6336                22.3565

                     25                     26                     27
                      A                      A                      A
 Frequencies --    466.3391               496.1158               515.0193
 Red. masses --      2.6058                 3.0375                 3.2164
 Frc consts  --      0.3339                 0.4405                 0.5026
 IR Inten    --     16.8594                21.0378                17.4153

                     28                     29                     30
                      A                      A                      A
 Frequencies --    537.5851               546.1235               566.9230
 Red. masses --      2.8549                 4.6843                 3.3738
 Frc consts  --      0.4861                 0.8231                 0.6389
 IR Inten    --      4.1219                13.5552                15.6539

                     31                     32                     33
                      A                      A                      A
 Frequencies --    607.9307               631.8892               728.8989
 Red. masses --      3.3950                 5.6463                 4.7381
 Frc consts  --      0.7393                 1.3283                 1.4832
 IR Inten    --     10.0231                 3.5602                 4.6598

                     34                     35                     36
                      A                      A                      A
 Frequencies --    736.7772               802.5546               818.2441
 Red. masses --      4.3936                 4.0583                 4.3652
 Frc consts  --      1.4052                 1.5401                 1.7220
 IR Inten    --      1.8448                 0.8607                10.9936

                     37                     38                     39
                      A                      A                      A
 Frequencies --    854.6568               870.6608               883.1978
 Red. masses --      1.4361                 1.8680                 2.2125
 Frc consts  --      0.6181                 0.8343                 1.0168
 IR Inten    --     27.5720                 8.1369                 2.9460

                     40                     41                     42
                      A                      A                      A
 Frequencies --    935.9674               940.6357               953.1858
 Red. masses --      1.3114                 2.2488                 1.5853
 Frc consts  --      0.6768                 1.1723                 0.8486
 IR Inten    --     16.2338                31.9690                 1.9479

                     43                     44                     45
                      A                      A                      A
 Frequencies --    958.2335               968.0754               981.4399
 Red. masses --      1.5980                 1.3434                 1.9827
 Frc consts  --      0.8645                 0.7418                 1.1252
 IR Inten    --      2.5495                 2.3306                 5.0788

                     46                     47                     48
                      A                      A                      A
 Frequencies --    996.5773              1002.5907              1014.1536
 Red. masses --      1.2227                 1.5497                 4.2297
 Frc consts  --      0.7155                 0.9178                 2.5631
 IR Inten    --      1.0533                35.8103                39.1669

                     49                     50                     51
                      A                      A                      A
 Frequencies --   1044.3949              1073.0666              1079.7302
 Red. masses --      1.9164                 3.2507                 2.1082
 Frc consts  --      1.2316                 2.2054                 1.4481
 IR Inten    --     34.1510                90.7230                52.0479

                     52                     53                     54
                      A                      A                      A
 Frequencies --   1098.4638              1121.2421              1133.3023
 Red. masses --      1.6118                 2.0550                 1.9299
 Frc consts  --      1.1459                 1.5222                 1.4604
 IR Inten    --     27.5004                56.2750                 8.3037

                     55                     56                     57
                      A                      A                      A
 Frequencies --   1170.0991              1193.1142              1198.8463
 Red. masses --      1.3911                 1.4709                 1.2324
 Frc consts  --      1.1222                 1.2337                 1.0436
 IR Inten    --     38.4141               203.3358                58.4989

                     58                     59                     60
                      A                      A                      A
 Frequencies --   1224.2414              1230.7644              1252.8782
 Red. masses --      2.1250                 1.1275                 2.4907
 Frc consts  --      1.8764                 1.0063                 2.3035
 IR Inten    --     92.6940                61.5986                79.4875

                     61                     62                     63
                      A                      A                      A
 Frequencies --   1273.4981              1289.9392              1308.0467
 Red. masses --      2.2080                 2.0256                 1.8455
 Frc consts  --      2.1098                 1.9858                 1.8604
 IR Inten    --     37.5639                29.7230                71.5121

                     64                     65                     66
                      A                      A                      A
 Frequencies --   1318.7958              1344.9203              1353.4021
 Red. masses --      2.3321                 1.5529                 1.4060
 Frc consts  --      2.3898                 1.6550                 1.5174
 IR Inten    --     29.8718                58.2446                13.6456

                     67                     68                     69
                      A                      A                      A
 Frequencies --   1368.0417              1382.3135              1419.4275
 Red. masses --      2.0465                 1.6117                 1.2405
 Frc consts  --      2.2566                 1.8144                 1.4725
 IR Inten    --     13.1487                70.8032                45.7869

                     70                     71                     72
                      A                      A                      A
 Frequencies --   1425.2903              1432.4531              1435.9054
 Red. masses --      1.2809                 1.3438                 1.4626
 Frc consts  --      1.5332                 1.6246                 1.7768
 IR Inten    --     33.8699                63.3323                34.7150

                     73                     74                     75
                      A                      A                      A
 Frequencies --   1450.0602              1455.1585              1472.4704
 Red. masses --      1.3186                 1.2600                 1.2245
 Frc consts  --      1.6336                 1.5719                 1.5642
 IR Inten    --     37.1858                37.9938                 9.8180

                     76                     77                     78
                      A                      A                      A
 Frequencies --   1483.4072              1506.5525              1510.3990
 Red. masses --      2.6564                 1.0559                 1.0528
 Frc consts  --      3.4441                 1.4120                 1.4151
 IR Inten    --      6.7549                 5.4104                 1.0852

                     79                     80                     81
                      A                      A                      A
 Frequencies --   1516.5607              1519.3524              1527.3148
 Red. masses --      1.0477                 1.0899                 1.0939
 Frc consts  --      1.4198                 1.4824                 1.5034
 IR Inten    --     11.3529                 5.4221                59.9140

                     82                     83                     84
                      A                      A                      A
 Frequencies --   1530.6737              1544.6745              1545.4271
 Red. masses --      1.2916                 1.8333                 1.1464
 Frc consts  --      1.7830                 2.5772                 1.6132
 IR Inten    --     17.2577               126.0487                19.7881

                     85                     86                     87
                      A                      A                      A
 Frequencies --   1561.5203              1577.8212              1647.2618
 Red. masses --      1.0664                 1.1339                 6.0689
 Frc consts  --      1.5320                 1.6632                 9.7025
 IR Inten    --      3.4101                54.4780                49.7585

                     88                     89                     90
                      A                      A                      A
 Frequencies --   1677.8662              1728.0463              2987.7833
 Red. masses --      6.3545                 1.0657                 1.0728
 Frc consts  --     10.5401                 1.8750                 5.6424
 IR Inten    --     33.4493               108.8861                96.9056

                     91                     92                     93
                      A                      A                      A
 Frequencies --   3027.3118              3077.7702              3084.8731
 Red. masses --      1.0855                 1.0374                 1.0893
 Frc consts  --      5.8614                 5.7896                 6.1075
 IR Inten    --     51.5958                17.2223                33.8599

                     94                     95                     96
                      A                      A                      A
 Frequencies --   3087.1384              3092.8675              3148.8707
 Red. masses --      1.0359                 1.0371                 1.1000
 Frc consts  --      5.8170                 5.8452                 6.4260
 IR Inten    --     13.6990                 2.9045                15.1456

                     97                     98                     99
                      A                      A                      A
 Frequencies --   3152.7948              3157.0224              3161.1831
 Red. masses --      1.0690                 1.0977                 1.1026
 Frc consts  --      6.2608                 6.4457                 6.4920
 IR Inten    --      2.8072                 8.0184                 1.6857

                    100                    101                    102
                      A                      A                      A
 Frequencies --   3165.9538              3169.0467              3172.1662
 Red. masses --      1.1015                 1.0992                 1.0998
 Frc consts  --      6.5049                 6.5038                 6.5203
 IR Inten    --     27.8330                34.9727                25.8470

                    103                    104                    105
                      A                      A                      A
 Frequencies --   3208.5186              3215.4703              3220.5737
 Red. masses --      1.0889                 1.0881                 1.1098
 Frc consts  --      6.6047                 6.6281                 6.7819
 IR Inten    --      7.1930                 6.1283                 3.5379

                    106                    107                    108
                      A                      A                      A
 Frequencies --   3231.0308              3410.8415              3456.3284
 Red. masses --      1.0941                 1.0538                 1.0886
 Frc consts  --      6.7297                 7.2229                 7.6623
 IR Inten    --     10.4742               117.6363               145.5639

                    109                    110                    111
                      A                      A                      A
 Frequencies --   3740.5632              3754.0178              3757.7867
 Red. masses --      1.0663                 1.0660                 1.0666
 Frc consts  --      8.7900                 8.8511                 8.8740
 IR Inten    --     48.5693               116.3704                94.0670

 - Thermochemistry -
 -------------------
 Temperature   298.150 Kelvin.  Pressure   1.00000 Atm.
 Atom     1 has atomic number  6 and mass  12.00000

 Molecular mass:   240.15997 amu.
 Principal axes and moments of inertia in atomic units:
                           1         2         3
     Eigenvalues --  2064.804639775.39179**********
           X            0.99998   0.00043  -0.00547
           Y           -0.00043   1.00000   0.00092
           Z            0.00547  -0.00091   0.99998
 This molecule is an asymmetric top.
 Rotational symmetry number  1.
 Warning -- assumption of classical behavior for rotation
           may cause significant error
 Rotational temperatures (Kelvin)      0.04195     0.00886     0.00826
 Rotational constants (GHZ):           0.87405     0.18462     0.17214
 Zero-point vibrational energy     913008.7 (Joules/Mol)
                                  218.21432 (Kcal/Mol)
 Warning -- explicit consideration of  31 degrees of freedom as
           vibrations may cause significant error
 Vibrational temperatures:     70.19    85.57    97.18   113.88   174.10
          (Kelvin)            200.20   224.45   258.69   304.26   329.56
                              357.89   377.30   388.16   394.16   416.77
                              445.38   476.26   477.44   485.16   521.15
                              530.53   536.79   605.75   650.63   670.96
                              713.80   741.00   773.47   785.75   815.68
                              874.68   909.15  1048.72  1060.06  1154.70
                             1177.27  1229.66  1252.69  1270.72  1346.65
                             1353.36  1371.42  1378.68  1392.84  1412.07
                             1433.85  1442.50  1459.14  1502.65  1543.90
                             1553.49  1580.44  1613.22  1630.57  1683.51
                             1716.63  1724.87  1761.41  1770.80  1802.61
                             1832.28  1855.93  1881.99  1897.45  1935.04
                             1947.24  1968.31  1988.84  2042.24  2050.67
                             2060.98  2065.95  2086.31  2093.65  2118.56
                             2134.29  2167.59  2173.13  2181.99  2186.01
                             2197.47  2202.30  2222.44  2223.52  2246.68
                             2270.13  2370.04  2414.08  2486.27  4298.75
                             4355.63  4428.22  4438.44  4441.70  4449.95
                             4530.52  4536.17  4542.25  4548.24  4555.10
                             4559.55  4564.04  4616.34  4626.34  4633.69
                             4648.73  4907.44  4972.89  5381.84  5401.19
                             5406.62

 Zero-point correction=                           0.347747 (Hartree/Particle)
 Thermal correction to Energy=                    0.365772
 Thermal correction to Enthalpy=                  0.366716
 Thermal correction to Gibbs Free Energy=         0.302927
 Sum of electronic and zero-point Energies=           -788.567394
 Sum of electronic and thermal Energies=              -788.549369
 Sum of electronic and thermal Enthalpies=            -788.548424
 Sum of electronic and thermal Free Energies=         -788.612214

                     E (Thermal)             CV                S
                      KCal/Mol        Cal/Mol-Kelvin    Cal/Mol-Kelvin
 Total                  229.525             70.423            134.255
 Electronic               0.000              0.000              0.000
 Translational            0.889              2.981             42.330
 Rotational               0.889              2.981             33.714
 Vibrational            227.748             64.461             58.212
 Vibration     1          0.595              1.978              4.866
 Vibration     2          0.597              1.974              4.475
 Vibration     3          0.598              1.970              4.224
 Vibration     4          0.600              1.963              3.912
 Vibration     5          0.609              1.932              3.084
 Vibration     6          0.615              1.914              2.816
 Vibration     7          0.620              1.896              2.598
 Vibration     8          0.629              1.867              2.330
 Vibration     9          0.643              1.823              2.031
 Vibration    10          0.652              1.797              1.886
 Vibration    11          0.662              1.765              1.739
 Vibration    12          0.670              1.742              1.647
 Vibration    13          0.674              1.729              1.598
 Vibration    14          0.676              1.721              1.571
 Vibration    15          0.686              1.693              1.476
 Vibration    16          0.699              1.656              1.365
 Vibration    17          0.713              1.614              1.255
 Vibration    18          0.714              1.612              1.251
 Vibration    19          0.718              1.601              1.225
 Vibration    20          0.736              1.550              1.113
 Vibration    21          0.741              1.536              1.085
 Vibration    22          0.744              1.527              1.067
 Vibration    23          0.784              1.425              0.889
 Vibration    24          0.811              1.356              0.789
 Vibration    25          0.824              1.325              0.748
 Vibration    26          0.852              1.259              0.668
 Vibration    27          0.870              1.217              0.622
 Vibration    28          0.893              1.167              0.571
 Vibration    29          0.901              1.148              0.552
 Vibration    30          0.923              1.103              0.510
 Vibration    31          0.967              1.015              0.436

                           ! Non-Optimized Parameters !
 Normal termination of Gaussian 16 at Sun Jul 18 17:46:30 2021.

 ----------------------------------------------------------------------
 #p b3lyp/6-31G(d) scrf=(iefpcm,read,solvent=n-octanol) geom=allcheck g
 uess=read
 ----------------------------------------------------------------------

 Structure from the checkpoint file:  "SET_328_BBB301_conf1.geo_165_105_270.chk"
 ---------------------------------------------
 SET_328_BBB301_conf1.geo_165_105_270 geometry
 ---------------------------------------------
 Charge =  1 Multiplicity = 1

 SCF Done:  E(RB3LYP) =  -788.917299180     A.U. after    1 cycles
 Normal termination of Gaussian 16 at Sun Jul 18 17:47:33 2021.

 -----------------------------
 #p B3LYP/6-31G* geom=allcheck
 -----------------------------

 Structure from the checkpoint file:  "SET_328_BBB301_conf1.geo_165_105_270.chk"
 ---------------------------------------------
 SET_328_BBB301_conf1.geo_165_105_270 geometry
 ---------------------------------------------
 Charge =  1 Multiplicity = 1

 SCF Done:  E(RB3LYP) =  -788.819085485     A.U. after   14 cycles
 Normal termination of Gaussian 16 at Sun Jul 18 17:49:54 2021.
 Gaussian 16:  ES64L-G16RevA.03 25-Dec-2016

 --------------------------------------------------------
 #p mp2/aug-cc-pVDZ scf=tight maxdisk=180GB geom=allcheck
 --------------------------------------------------------

 Structure from the checkpoint file:  "SET_328_BBB301_conf1.geo_165_105_270.chk"
 ---------------------------------------------
 SET_328_BBB301_conf1.geo_165_105_270 geometry
 ---------------------------------------------
 Charge =  1 Multiplicity = 1

                         Standard orientation:
 ---------------------------------------------------------------------
 Center     Atomic      Atomic             Coordinates (Angstroms)
 Number     Number       Type             X           Y           Z
 ---------------------------------------------------------------------
      1          6           0        3.808768   -1.352253   -1.506101
      2          1           0        4.654082   -1.353035   -2.197469
      3          1           0        2.903367   -1.175554   -2.090964
      4          1           0        3.748042   -2.345674   -1.055813
      5          6           0        4.032873   -0.267031   -0.452582
      6          6           0        5.300723   -0.541199    0.364294
      7          1           0        5.447364    0.210649    1.144871
      8          1           0        6.165865   -0.504004   -0.301277
      9          1           0        5.280014   -1.532793    0.828669
     10          6           0        4.084481    1.126435   -1.083668
     11          1           0        4.196246    1.910726   -0.328834
     12          1           0        3.200074    1.342171   -1.685765
     13          1           0        4.950618    1.176271   -1.746776
     14          7           0        2.854341   -0.310037    0.542041
     15          1           0        2.980875    0.420145    1.260068
     16          6           0        1.472447   -0.124489   -0.021592
     17          1           0        1.215003   -1.004446   -0.606745
     18          1           0        1.499404    0.749618   -0.669600
     19          6           0        0.472265    0.108195    1.112265
     20          8           0        1.026120    1.196284    1.844651
     21          1           0        0.478138    1.353647    2.629401
     22          1           0        0.420986   -0.792800    1.737991
     23          6           0       -0.906386    0.397632    0.559167
     24          6           0       -1.836036   -0.630966    0.393146
     25          1           0       -1.597064   -1.647352    0.690882
     26          6           0       -3.102875   -0.396166   -0.144112
     27          6           0       -4.085829   -1.539880   -0.317812
     28          8           0       -3.749336   -2.695153    0.428092
     29          1           0       -3.840820   -2.474139    1.369025
     30          1           0       -4.109798   -1.865721   -1.363586
     31          1           0       -5.105442   -1.204282   -0.070140
     32          6           0       -3.435456    0.917089   -0.521324
     33          8           0       -4.643631    1.255786   -1.056828
     34          1           0       -5.215748    0.476891   -1.137425
     35          6           0       -2.517320    1.957005   -0.347735
     36          1           0       -2.810838    2.961275   -0.634750
     37          6           0       -1.261098    1.697358    0.184460
     38          1           0       -0.552080    2.503637    0.333185
     39          1           0        2.886765   -1.200685    1.063002
 ---------------------------------------------------------------------

 SCF Done:  E(RHF) =  -784.034040020     A.U. after   16 cycles
 E2 =    -0.2632803453D+01 EUMP2 =    -0.78666684347380D+03

 The electronic state is 1-A.
 Alpha  occ. eigenvalues --  -20.72031 -20.69658 -20.67130 -15.84148 -11.45754
 Alpha  occ. eigenvalues --  -11.44654 -11.44102 -11.41342 -11.39462 -11.37705
 Alpha  occ. eigenvalues --  -11.37563 -11.37436 -11.35488 -11.35375 -11.35221
 Alpha  occ. eigenvalues --  -11.34950 -11.33855  -1.52347  -1.50520  -1.46676
 Alpha  occ. eigenvalues --   -1.46289  -1.26792  -1.24489  -1.18235  -1.14527
 Alpha  occ. eigenvalues --   -1.11654  -1.09850  -1.09191  -1.03327  -1.00891
 Alpha  occ. eigenvalues --   -0.95085  -0.93505  -0.92461  -0.91123  -0.85161
 Alpha  occ. eigenvalues --   -0.83818  -0.82429  -0.81977  -0.79800  -0.78047
 Alpha  occ. eigenvalues --   -0.76706  -0.75465  -0.74759  -0.72969  -0.71683
 Alpha  occ. eigenvalues --   -0.70846  -0.70718  -0.70546  -0.68857  -0.68617
 Alpha  occ. eigenvalues --   -0.68153  -0.67967  -0.67518  -0.66861  -0.66531
 Alpha  occ. eigenvalues --   -0.63475  -0.63349  -0.63179  -0.62441  -0.60361
 Alpha  occ. eigenvalues --   -0.58717  -0.57758  -0.55303  -0.44276  -0.41700
 Alpha virt. eigenvalues --   -0.07643  -0.05529  -0.05457  -0.04907  -0.03664
 Alpha virt. eigenvalues --   -0.03432  -0.03107  -0.03064  -0.02956  -0.02192
 Alpha virt. eigenvalues --   -0.01811  -0.01206  -0.00749  -0.00671  -0.00169

 Mulliken charges:
               1
     1  C    1.338903
     2  H    0.008971
     3  H   -0.036417
     4  H   -0.030823
     5  C   -3.454224
     6  C    1.310198
     7  H    0.000613
     8  H    0.044301
     9  H   -0.015142
    10  C    1.300691
    11  H   -0.004788
    12  H   -0.023289
    13  H   -0.011387
    14  N   -0.737956
    15  H    0.274777
    16  C    0.769650
    17  H   -0.263008
    18  H   -0.220776
    19  C    1.597746
    20  O   -0.911231
    21  H    0.198366
    22  H   -0.271768
    23  C    0.812130
    24  C    0.137361
    25  H   -0.783625
    26  C   -0.306903
    27  C    1.364666
    28  O   -0.663731
    29  H    0.135179
    30  H    0.081793
    31  H    0.001519
    32  C    0.250689
    33  O   -0.935152
    34  H    0.178164
    35  C    0.093834
    36  H   -0.521852
    37  C    0.830328
    38  H   -0.759255
    39  H    0.221450
 Sum of Mulliken charges =   1.00000

 Dipole moment (field-independent basis, Debye):
    X=              9.6066    Y=             -1.5956    Z=              1.9532  Tot=              9.9321
 Quadrupole moment (field-independent basis, Debye-Ang):
   XX=            -33.8547   YY=           -101.5073   ZZ=            -90.6611
   XY=             -2.5758   XZ=             -2.3406   YZ=             -1.0067

 Normal termination of Gaussian 16 at Sun Jul 18 19:01:27 2021.
