 Gaussian 16, Revision A.03,

 ---------------------------------------------------------------
 #p b3lyp/6-31G(d) opt freq scrf=(iefpcm,read,solvent=n-octanol)
 ---------------------------------------------------------------

 ---------------------------------------------
 SET_328_BBB321_conf1.geo_180_210_255 geometry
 ---------------------------------------------
 Symbolic Z-matrix:
 Charge =  1 Multiplicity = 1

 SCF Done:  E(RB3LYP) =  -1212.37776606     A.U. after   23 cycles
 SCF Done:  E(RB3LYP) =  -1212.55187343     A.U. after   15 cycles
 SCF Done:  E(RB3LYP) =  -1212.70173793     A.U. after   13 cycles
 SCF Done:  E(RB3LYP) =  -1212.74917556     A.U. after   12 cycles
 SCF Done:  E(RB3LYP) =  -1212.78128688     A.U. after   13 cycles
 SCF Done:  E(RB3LYP) =  -1212.80066746     A.U. after   14 cycles
 SCF Done:  E(RB3LYP) =  -1212.80878080     A.U. after   12 cycles
 SCF Done:  E(RB3LYP) =  -1212.81070149     A.U. after   14 cycles
 SCF Done:  E(RB3LYP) =  -1212.81657508     A.U. after   13 cycles
 SCF Done:  E(RB3LYP) =  -1212.81711592     A.U. after   11 cycles
 SCF Done:  E(RB3LYP) =  -1212.81934021     A.U. after    8 cycles
 SCF Done:  E(RB3LYP) =  -1212.81933503     A.U. after    9 cycles
 SCF Done:  E(RB3LYP) =  -1212.81933239     A.U. after    8 cycles
 SCF Done:  E(RB3LYP) =  -1212.81933901     A.U. after    9 cycles
 SCF Done:  E(RB3LYP) =  -1212.81933890     A.U. after    6 cycles
 SCF Done:  E(RB3LYP) =  -1212.81933890     A.U. after    5 cycles
 Optimization completed.
    -- Stationary point found.
 Normal termination of Gaussian 16 at Sun Jul 18 19:50:35 2021.

 --------------------------------------------------------------------
 #P Geom=AllCheck Guess=TCheck SCRF=Check GenChk RB3LYP/6-31G(d) Freq
 --------------------------------------------------------------------

 Structure from the checkpoint file:  "SET_328_BBB321_conf1.geo_180_210_255.chk"
 ---------------------------------------------
 SET_328_BBB321_conf1.geo_180_210_255 geometry
 ---------------------------------------------
 Charge =  1 Multiplicity = 1

 SCF Done:  E(RB3LYP) =  -1212.81933890     A.U. after    1 cycles

  Exact polarizability: 357.862  -5.269 257.826  -0.988  -2.201  81.987
 Approx polarizability: 386.226 -18.455 355.721  -1.452  -3.879 109.869

                      1                      2                      3
                      A                      A                      A
 Frequencies --     34.5394                43.6432                71.7793
 Red. masses --      5.4050                 6.3874                 5.8827
 Frc consts  --      0.0038                 0.0072                 0.0179
 IR Inten    --      3.7455                18.5615                10.1397

                      4                      5                      6
                      A                      A                      A
 Frequencies --     75.2954                79.3107                91.1161
 Red. masses --      2.1000                 2.2820                 4.9061
 Frc consts  --      0.0070                 0.0085                 0.0240
 IR Inten    --      9.0353                 7.3946                34.4498

                      7                      8                      9
                      A                      A                      A
 Frequencies --     96.7156               110.5728               132.3260
 Red. masses --      2.1947                 2.8954                 3.1525
 Frc consts  --      0.0121                 0.0209                 0.0325
 IR Inten    --      5.4985                80.0655                53.3622

                     10                     11                     12
                      A                      A                      A
 Frequencies --    137.4551               203.0975               253.0467
 Red. masses --      1.8108                 6.9029                 5.7490
 Frc consts  --      0.0202                 0.1678                 0.2169
 IR Inten    --    155.4769                16.6691                 3.7768

                     13                     14                     15
                      A                      A                      A
 Frequencies --    261.8905               264.9588               280.4101
 Red. masses --      5.3172                 4.1654                 4.8579
 Frc consts  --      0.2149                 0.1723                 0.2251
 IR Inten    --      3.4474                 0.6491                 4.7194

                     16                     17                     18
                      A                      A                      A
 Frequencies --    333.0974               350.7004               361.8036
 Red. masses --      6.9144                 4.4783                 5.3825
 Frc consts  --      0.4520                 0.3245                 0.4151
 IR Inten    --     23.5380                 1.4033                 0.8873

                     19                     20                     21
                      A                      A                      A
 Frequencies --    367.6111               386.5531               444.6866
 Red. masses --      1.1227                 4.8249                 1.1710
 Frc consts  --      0.0894                 0.4248                 0.1364
 IR Inten    --      1.3742                 2.4067               312.2439

                     22                     23                     24
                      A                      A                      A
 Frequencies --    454.7311               492.9903               523.4972
 Red. masses --      3.2383                 4.9865                 2.0247
 Frc consts  --      0.3945                 0.7140                 0.3269
 IR Inten    --      0.3981                 2.1018               109.5006

                     25                     26                     27
                      A                      A                      A
 Frequencies --    537.6836               548.0892               559.8293
 Red. masses --      3.9907                 2.4880                 1.8131
 Frc consts  --      0.6798                 0.4403                 0.3348
 IR Inten    --     38.5685                 5.4623               177.8938

                     28                     29                     30
                      A                      A                      A
 Frequencies --    579.2307               603.3605               616.4539
 Red. masses --      1.8137                 3.4296                 8.1332
 Frc consts  --      0.3585                 0.7356                 1.8210
 IR Inten    --      6.0880                24.9683                 2.3456

                     31                     32                     33
                      A                      A                      A
 Frequencies --    636.0462               666.8294               694.2730
 Red. masses --      1.7191                 6.2975                 3.0929
 Frc consts  --      0.4098                 1.6499                 0.8784
 IR Inten    --     23.0882                 4.8939                20.1118

                     34                     35                     36
                      A                      A                      A
 Frequencies --    697.3822               705.9089               711.9027
 Red. masses --      3.7406                 1.6323                 6.0805
 Frc consts  --      1.0718                 0.4792                 1.8156
 IR Inten    --      0.2463                 4.0041                 6.4068

                     37                     38                     39
                      A                      A                      A
 Frequencies --    730.1008               748.4857               826.2410
 Red. masses --      1.3445                 1.9095                 4.6364
 Frc consts  --      0.4222                 0.6303                 1.8648
 IR Inten    --     20.5805                58.5755                35.7928

                     40                     41                     42
                      A                      A                      A
 Frequencies --    827.6901               863.5129               876.8275
 Red. masses --      1.5271                 5.8157                 1.8499
 Frc consts  --      0.6164                 2.5550                 0.8380
 IR Inten    --     16.5409                 9.8043                30.0033

                     43                     44                     45
                      A                      A                      A
 Frequencies --    884.4855               937.4626               950.9919
 Red. masses --      4.0198                 1.3486                 5.2097
 Frc consts  --      1.8528                 0.6983                 2.7760
 IR Inten    --     21.6076                 0.8131                 2.1668

                     46                     47                     48
                      A                      A                      A
 Frequencies --   1000.8576              1004.2009              1010.3773
 Red. masses --      1.2704                 4.1809                 4.2981
 Frc consts  --      0.7498                 2.4841                 2.5852
 IR Inten    --      2.1114                 4.3667                14.5900

                     49                     50                     51
                      A                      A                      A
 Frequencies --   1017.3772              1038.3734              1067.6229
 Red. masses --      4.7057                 1.8026                 1.6799
 Frc consts  --      2.8697                 1.1451                 1.1282
 IR Inten    --      2.0380                29.2629                15.0945

                     52                     53                     54
                      A                      A                      A
 Frequencies --   1078.8248              1100.9822              1128.9645
 Red. masses --      1.4179                 1.8727                 1.6259
 Frc consts  --      0.9723                 1.3374                 1.2210
 IR Inten    --      3.1160                24.9367                14.7992

                     55                     56                     57
                      A                      A                      A
 Frequencies --   1155.5671              1214.1591              1225.2422
 Red. masses --      1.5781                 1.1642                 2.0297
 Frc consts  --      1.2415                 1.0112                 1.7952
 IR Inten    --     18.5769                 0.6487                85.4995

                     58                     59                     60
                      A                      A                      A
 Frequencies --   1238.6938              1267.5986              1292.9881
 Red. masses --      2.0108                 3.0360                 2.3467
 Frc consts  --      1.8178                 2.8742                 2.3115
 IR Inten    --    132.3350               116.1686                76.2014

                     61                     62                     63
                      A                      A                      A
 Frequencies --   1336.8464              1354.4410              1374.1216
 Red. masses --      2.7075                 2.6044                 3.4743
 Frc consts  --      2.8509                 2.8150                 3.8652
 IR Inten    --     18.5179               250.8261                85.4009

                     64                     65                     66
                      A                      A                      A
 Frequencies --   1426.0336              1463.2911              1486.0037
 Red. masses --      1.2539                 2.7431                 1.7814
 Frc consts  --      1.5024                 3.4606                 2.3177
 IR Inten    --     40.4697                32.0218                14.4012

                     67                     68                     69
                      A                      A                      A
 Frequencies --   1496.8301              1511.0722              1521.3810
 Red. masses --      1.0627                 1.0963                 2.7175
 Frc consts  --      1.4028                 1.4748                 3.7059
 IR Inten    --     12.2554                13.6380               398.1905

                     70                     71                     72
                      A                      A                      A
 Frequencies --   1547.4068              1566.9179              1594.2413
 Red. masses --      2.1998                 3.7510                 2.4061
 Frc consts  --      3.1034                 5.4261                 3.6031
 IR Inten    --    344.9512               245.5975               366.9279

                     73                     74                     75
                      A                      A                      A
 Frequencies --   1600.8324              1612.1395              1647.6014
 Red. masses --      3.3813                 1.4008                 4.0645
 Frc consts  --      5.1054                 2.1451                 6.5007
 IR Inten    --    112.6444               207.0244                88.3296

                     76                     77                     78
                      A                      A                      A
 Frequencies --   1654.7545              1665.4048              1717.5031
 Red. masses --      1.7633                 5.5320                 4.2439
 Frc consts  --      2.8447                 9.0400                 7.3758
 IR Inten    --    896.4742               157.3932               872.1736

                     79                     80                     81
                      A                      A                      A
 Frequencies --   1771.5164              3079.5888              3148.4634
 Red. masses --      7.7621                 1.0382                 1.0994
 Frc consts  --     14.3523                 5.8011                 6.4210
 IR Inten    --    324.7919                 6.5068                13.0252

                     82                     83                     84
                      A                      A                      A
 Frequencies --   3175.1053              3206.3059              3212.1019
 Red. masses --      1.1038                 1.0894                 1.0896
 Frc consts  --      6.5565                 6.5987                 6.6234
 IR Inten    --     15.1316                20.1252                20.1675

                     85                     86                     87
                      A                      A                      A
 Frequencies --   3253.6569              3290.1892              3307.1513
 Red. masses --      1.0908                 1.0919                 1.0943
 Frc consts  --      6.8037                 6.9641                 7.0516
 IR Inten    --      6.3505                11.7457                 7.1072

                     88                     89                     90
                      A                      A                      A
 Frequencies --   3487.7170              3566.9322              3580.8367
 Red. masses --      1.0527                 1.0502                 1.0767
 Frc consts  --      7.5447                 7.8728                 8.1339
 IR Inten    --    432.9440               209.0867               322.0852

                     91                     92                     93
                      A                      A                      A
 Frequencies --   3596.3018              3640.2397              3679.4358
 Red. masses --      1.0773                 1.1014                 1.1077
 Frc consts  --      8.2091                 8.5992                 8.8352
 IR Inten    --     50.2175               426.0555               231.8437

 - Thermochemistry -
 -------------------
 Temperature   298.150 Kelvin.  Pressure   1.00000 Atm.
 Atom     1 has atomic number  6 and mass  12.00000

 Molecular mass:   276.09191 amu.
 Principal axes and moments of inertia in atomic units:
                           1         2         3
     Eigenvalues --  1985.54698********************
           X            0.99988   0.01517  -0.00014
           Y           -0.01517   0.99988  -0.00202
           Z            0.00011   0.00202   1.00000
 This molecule is an asymmetric top.
 Rotational symmetry number  1.
 Warning -- assumption of classical behavior for rotation
           may cause significant error
 Rotational temperatures (Kelvin)      0.04362     0.00624     0.00547
 Rotational constants (GHZ):           0.90894     0.12999     0.11397
 Zero-point vibrational energy     684675.5 (Joules/Mol)
                                  163.64138 (Kcal/Mol)
 Warning -- explicit consideration of  30 degrees of freedom as
           vibrations may cause significant error
 Vibrational temperatures:     49.69    62.79   103.27   108.33   114.11
          (Kelvin)            131.10   139.15   159.09   190.39   197.77
                              292.21   364.08   376.80   381.22   403.45
                              479.25   504.58   520.55   528.91   556.16
                              639.80   654.26   709.30   753.20   773.61
                              788.58   805.47   833.38   868.10   886.94
                              915.13   959.42   998.90  1003.38  1015.65
                             1024.27  1050.45  1076.90  1188.78  1190.86
                             1242.40  1261.56  1272.58  1348.80  1368.27
                             1440.01  1444.82  1453.71  1463.78  1493.99
                             1536.07  1552.19  1584.07  1624.33  1662.60
                             1746.90  1762.85  1782.20  1823.79  1860.32
                             1923.42  1948.74  1977.05  2051.74  2105.35
                             2138.03  2153.60  2174.10  2188.93  2226.37
                             2254.45  2293.76  2303.24  2319.51  2370.53
                             2380.82  2396.15  2471.10  2548.82  4430.84
                             4529.94  4568.27  4613.16  4621.50  4681.29
                             4733.85  4758.25  5018.05  5132.02  5152.03
                             5174.28  5237.49  5293.89

 Zero-point correction=                           0.260779 (Hartree/Particle)
 Thermal correction to Energy=                    0.279190
 Thermal correction to Enthalpy=                  0.280134
 Thermal correction to Gibbs Free Energy=         0.213238
 Sum of electronic and zero-point Energies=          -1212.558560
 Sum of electronic and thermal Energies=             -1212.540149
 Sum of electronic and thermal Enthalpies=           -1212.539205
 Sum of electronic and thermal Free Energies=        -1212.606101

                     E (Thermal)             CV                S
                      KCal/Mol        Cal/Mol-Kelvin    Cal/Mol-Kelvin
 Total                  175.194             69.530            140.796
 Electronic               0.000              0.000              0.000
 Translational            0.889              2.981             42.745
 Rotational               0.889              2.981             34.433
 Vibrational            173.417             63.568             63.617
 Vibration     1          0.594              1.983              5.550
 Vibration     2          0.595              1.980              5.086
 Vibration     3          0.598              1.967              4.104
 Vibration     4          0.599              1.965              4.010
 Vibration     5          0.600              1.963              3.908
 Vibration     6          0.602              1.955              3.636
 Vibration     7          0.603              1.952              3.519
 Vibration     8          0.606              1.941              3.259
 Vibration     9          0.612              1.921              2.912
 Vibration    10          0.614              1.916              2.839
 Vibration    11          0.639              1.835              2.105
 Vibration    12          0.664              1.758              1.709
 Vibration    13          0.669              1.743              1.649
 Vibration    14          0.671              1.737              1.629
 Vibration    15          0.680              1.710              1.531
 Vibration    16          0.715              1.609              1.245
 Vibration    17          0.728              1.574              1.163
 Vibration    18          0.736              1.551              1.114
 Vibration    19          0.740              1.539              1.090
 Vibration    20          0.755              1.499              1.013
 Vibration    21          0.804              1.373              0.812
 Vibration    22          0.813              1.350              0.782
 Vibration    23          0.849              1.266              0.676
 Vibration    24          0.878              1.198              0.602
 Vibration    25          0.893              1.167              0.570
 Vibration    26          0.903              1.144              0.548
 Vibration    27          0.915              1.118              0.524
 Vibration    28          0.936              1.076              0.487
 Vibration    29          0.962              1.025              0.444
 Vibration    30          0.976              0.997              0.422

                           ! Non-Optimized Parameters !
 Normal termination of Gaussian 16 at Sun Jul 18 21:47:54 2021.

 ----------------------------------------------------------------------
 #p b3lyp/6-31G(d) scrf=(iefpcm,read,solvent=n-octanol) geom=allcheck g
 uess=read
 ----------------------------------------------------------------------

 Structure from the checkpoint file:  "SET_328_BBB321_conf1.geo_180_210_255.chk"
 ---------------------------------------------
 SET_328_BBB321_conf1.geo_180_210_255 geometry
 ---------------------------------------------
 Charge =  1 Multiplicity = 1

 SCF Done:  E(RB3LYP) =  -1212.81933890     A.U. after    1 cycles
 Normal termination of Gaussian 16 at Sun Jul 18 21:50:20 2021.

 -----------------------------
 #p B3LYP/6-31G* geom=allcheck
 -----------------------------

 Structure from the checkpoint file:  "SET_328_BBB321_conf1.geo_180_210_255.chk"
 ---------------------------------------------
 SET_328_BBB321_conf1.geo_180_210_255 geometry
 ---------------------------------------------
 Charge =  1 Multiplicity = 1

 SCF Done:  E(RB3LYP) =  -1212.69411851     A.U. after   16 cycles
 Normal termination of Gaussian 16 at Sun Jul 18 21:58:29 2021.
 Gaussian 16:  ES64L-G16RevA.03 25-Dec-2016

 --------------------------------------------------------
 #p mp2/aug-cc-pVDZ scf=tight maxdisk=180GB geom=allcheck
 --------------------------------------------------------

 Structure from the checkpoint file:  "SET_328_BBB321_conf1.geo_180_210_255.chk"
 ---------------------------------------------
 SET_328_BBB321_conf1.geo_180_210_255 geometry
 ---------------------------------------------
 Charge =  1 Multiplicity = 1

                         Standard orientation:
 ---------------------------------------------------------------------
 Center     Atomic      Atomic             Coordinates (Angstroms)
 Number     Number       Type             X           Y           Z
 ---------------------------------------------------------------------
      1          6           0       -6.469006   -1.154983    0.161820
      2          1           0       -7.260385   -0.831671    0.839828
      3          1           0       -6.079186   -2.118186    0.496826
      4          1           0       -6.915283   -1.286241   -0.829477
      5          6           0       -5.417677   -0.063912    0.088636
      6          8           0       -5.722364    1.120833    0.004059
      7          7           0       -4.120935   -0.521238    0.103540
      8          1           0       -4.000694   -1.525334    0.176156
      9          6           0       -2.927127    0.217948    0.004761
     10          6           0       -2.901818    1.617811   -0.110536
     11          6           0       -1.673032    2.267818   -0.201903
     12          6           0       -0.473072    1.561217   -0.182145
     13          1           0        0.475708    2.075561   -0.261705
     14          1           0       -1.655626    3.348992   -0.292028
     15          1           0       -3.835335    2.158782   -0.124969
     16          6           0       -1.722634   -0.495394    0.028645
     17          1           0       -1.745410   -1.575755    0.129345
     18          6           0       -0.490967    0.163716   -0.066875
     19          6           0        0.769674   -0.597963   -0.055880
     20          7           0        1.977596    0.086256   -0.010854
     21          6           0        0.895340   -1.958960   -0.099558
     22          1           0        0.119933   -2.706248   -0.155568
     23         16           0        2.565495   -2.435155   -0.080370
     24          6           0        2.988056   -0.731143   -0.019809
     25          7           0        4.320212   -0.346369    0.018886
     26          6           0        4.795928    0.933259    0.102421
     27          7           0        6.114739    1.098232    0.114300
     28          1           0        6.513132    2.027026    0.186688
     29          1           0        6.743699    0.303913    0.081885
     30          7           0        3.966266    1.960976    0.167320
     31          1           0        4.330971    2.904149    0.240659
     32          1           0        2.962262    1.790873    0.150463
     33          1           0        5.030060   -1.071528   -0.034455
 ---------------------------------------------------------------------

 SCF Done:  E(RHF) =  -1207.15554847     A.U. after   18 cycles
 E2 =    -0.2816100599D+01 EUMP2 =    -0.12099716490642D+04

 The electronic state is 1-A.
 Alpha  occ. eigenvalues --  -92.13573 -20.60539 -15.81623 -15.80115 -15.78675
 Alpha  occ. eigenvalues --  -15.72092 -15.69059 -11.60744 -11.51542 -11.44058
 Alpha  occ. eigenvalues --  -11.41377 -11.39185 -11.38333 -11.35590 -11.33759
 Alpha  occ. eigenvalues --  -11.33187 -11.33067 -11.31899 -11.31299  -9.13732
 Alpha  occ. eigenvalues --   -6.81895  -6.81788  -6.81594  -1.55225  -1.45955
 Alpha  occ. eigenvalues --   -1.45539  -1.39612  -1.38890  -1.33864  -1.24583
 Alpha  occ. eigenvalues --   -1.20511  -1.16921  -1.11729  -1.10839  -1.06379
 Alpha  occ. eigenvalues --   -1.05330  -0.99635  -0.98839  -0.95319  -0.93787
 Alpha  occ. eigenvalues --   -0.91171  -0.89142  -0.86639  -0.85754  -0.84361
 Alpha  occ. eigenvalues --   -0.82939  -0.81974  -0.81111  -0.76788  -0.75300
 Alpha  occ. eigenvalues --   -0.72353  -0.72290  -0.70913  -0.70044  -0.69368
 Alpha  occ. eigenvalues --   -0.68301  -0.66010  -0.64297  -0.64074  -0.63284
 Alpha  occ. eigenvalues --   -0.62369  -0.61502  -0.61404  -0.59031  -0.58134
 Alpha  occ. eigenvalues --   -0.57999  -0.53284  -0.51946  -0.49522  -0.47614
 Alpha  occ. eigenvalues --   -0.40970  -0.39009
 Alpha virt. eigenvalues --   -0.09151  -0.07084  -0.05424  -0.04888  -0.04440
 Alpha virt. eigenvalues --   -0.03661  -0.03380  -0.02834  -0.02355  -0.01838
 Alpha virt. eigenvalues --   -0.01414  -0.00340  -0.00050   0.00371   0.00614

 Mulliken charges:
               1
     1  C    0.464575
     2  H    0.024217
     3  H   -0.163449
     4  H    0.074079
     5  C    0.524620
     6  O   -0.854082
     7  N   -0.575362
     8  H   -0.027584
     9  C   -0.391602
    10  C    1.151091
    11  C   -0.108959
    12  C    0.777701
    13  H   -0.605139
    14  H   -0.541553
    15  H   -0.644930
    16  C    1.128262
    17  H   -0.766691
    18  C    1.642275
    19  C   -0.713864
    20  N   -0.693152
    21  C    0.500974
    22  H   -0.596927
    23  S    0.497323
    24  C    0.551180
    25  N   -0.726006
    26  C    1.338220
    27  N   -0.261597
    28  H    0.026930
    29  H   -0.001120
    30  N   -0.140525
    31  H    0.007653
    32  H    0.116895
    33  H   -0.013454
 Sum of Mulliken charges =   1.00000

 Dipole moment (field-independent basis, Debye):
    X=             19.9766    Y=             -0.8895    Z=              0.5976  Tot=             20.0053
 Quadrupole moment (field-independent basis, Debye-Ang):
   XX=             15.9666   YY=            -87.8842   ZZ=           -124.2954
   XY=             40.7250   XZ=              1.2743   YZ=              0.8235

 Normal termination of Gaussian 16 at Sun Jul 18 23:11:00 2021.
