 Gaussian 16, Revision A.03,

 ---------------------------------------------------------------
 #p b3lyp/6-31G(d) opt freq scrf=(iefpcm,read,solvent=n-octanol)
 ---------------------------------------------------------------

 ---------------------------------------------
 SET_328_BBB301_conf1.geo_165_120_315 geometry
 ---------------------------------------------
 Symbolic Z-matrix:
 Charge =  1 Multiplicity = 1

 SCF Done:  E(RB3LYP) =  -788.847790619     A.U. after   12 cycles
 SCF Done:  E(RB3LYP) =  -788.881557644     A.U. after   11 cycles
 SCF Done:  E(RB3LYP) =  -788.869881100     A.U. after   13 cycles
 SCF Done:  E(RB3LYP) =  -788.894403110     A.U. after   11 cycles
 SCF Done:  E(RB3LYP) =  -788.904001635     A.U. after   11 cycles
 SCF Done:  E(RB3LYP) =  -788.906851246     A.U. after   11 cycles
 SCF Done:  E(RB3LYP) =  -788.910467766     A.U. after   11 cycles
 SCF Done:  E(RB3LYP) =  -788.913274499     A.U. after   11 cycles
 SCF Done:  E(RB3LYP) =  -788.914155846     A.U. after   10 cycles
 SCF Done:  E(RB3LYP) =  -788.914627088     A.U. after   11 cycles
 SCF Done:  E(RB3LYP) =  -788.922509414     A.U. after    8 cycles
 SCF Done:  E(RB3LYP) =  -788.922517120     A.U. after    7 cycles
 SCF Done:  E(RB3LYP) =  -788.922537505     A.U. after    8 cycles
 SCF Done:  E(RB3LYP) =  -788.922517371     A.U. after    8 cycles
 SCF Done:  E(RB3LYP) =  -788.922537499     A.U. after    8 cycles
 SCF Done:  E(RB3LYP) =  -788.922516996     A.U. after    8 cycles
 Optimization completed on the basis of negligible forces.
    -- Stationary point found.
 Normal termination of Gaussian 16 at Sun Jul 18 17:25:40 2021.

 --------------------------------------------------------------------
 #P Geom=AllCheck Guess=TCheck SCRF=Check GenChk RB3LYP/6-31G(d) Freq
 --------------------------------------------------------------------

 Structure from the checkpoint file:  "SET_328_BBB301_conf1.geo_165_120_315.chk"
 ---------------------------------------------
 SET_328_BBB301_conf1.geo_165_120_315 geometry
 ---------------------------------------------
 Charge =  1 Multiplicity = 1

 SCF Done:  E(RB3LYP) =  -788.922516996     A.U. after    1 cycles

  Exact polarizability: 232.001  12.686 180.303  22.337 -17.414 138.776
 Approx polarizability: 258.785  13.620 225.770  32.042 -27.072 173.965

                      1                      2                      3
                      A                      A                      A
 Frequencies --     38.4721                56.8844                79.8785
 Red. masses --      4.1910                 4.8683                 3.0607
 Frc consts  --      0.0037                 0.0093                 0.0115
 IR Inten    --      0.9905                 0.2363                 0.2410

                      4                      5                      6
                      A                      A                      A
 Frequencies --     98.5477               110.9828               142.2718
 Red. masses --      4.0265                 3.2803                 4.7221
 Frc consts  --      0.0230                 0.0238                 0.0563
 IR Inten    --      2.6340                 3.3298                 1.9888

                      7                      8                      9
                      A                      A                      A
 Frequencies --    152.0485               194.2127               210.1852
 Red. masses --      3.5205                 2.8742                 3.6131
 Frc consts  --      0.0480                 0.0639                 0.0940
 IR Inten    --      1.9285                12.8359                 7.1349

                     10                     11                     12
                      A                      A                      A
 Frequencies --    240.9350               267.1858               276.1494
 Red. masses --      2.3889                 1.6074                 2.3256
 Frc consts  --      0.0817                 0.0676                 0.1045
 IR Inten    --      8.8085                12.1502                27.9921

                     13                     14                     15
                      A                      A                      A
 Frequencies --    287.2735               296.4347               300.8197
 Red. masses --      1.2228                 1.9088                 1.6020
 Frc consts  --      0.0595                 0.0988                 0.0854
 IR Inten    --      0.3038                32.4992                93.0345

                     16                     17                     18
                      A                      A                      A
 Frequencies --    315.7997               334.7472               344.2000
 Red. masses --      1.2047                 2.5793                 2.1673
 Frc consts  --      0.0708                 0.1703                 0.1513
 IR Inten    --      8.7983                52.2303                 7.2291

                     19                     20                     21
                      A                      A                      A
 Frequencies --    353.5578               372.4988               403.8560
 Red. masses --      2.5185                 1.9239                 2.1551
 Frc consts  --      0.1855                 0.1573                 0.2071
 IR Inten    --     36.7519                23.4880                17.6263

                     22                     23                     24
                      A                      A                      A
 Frequencies --    425.2902               432.4565               466.7112
 Red. masses --      2.7400                 2.9141                 2.3505
 Frc consts  --      0.2920                 0.3211                 0.3017
 IR Inten    --     18.7446                38.8911                 5.5098

                     25                     26                     27
                      A                      A                      A
 Frequencies --    469.9811               473.3235               493.3788
 Red. masses --      2.6479                 3.0542                 2.9363
 Frc consts  --      0.3446                 0.4031                 0.4211
 IR Inten    --     22.3051                26.0354                 3.5409

                     28                     29                     30
                      A                      A                      A
 Frequencies --    541.8597               600.2460               616.3178
 Red. masses --      3.1340                 3.5207                 4.5993
 Frc consts  --      0.5422                 0.7474                 1.0293
 IR Inten    --      5.1240                15.3986                17.0407

                     31                     32                     33
                      A                      A                      A
 Frequencies --    656.2429               730.4409               739.9224
 Red. masses --      4.8039                 1.7086                 1.8987
 Frc consts  --      1.2189                 0.5371                 0.6125
 IR Inten    --     29.1670                65.4170                87.8660

                     34                     35                     36
                      A                      A                      A
 Frequencies --    745.7836               773.0723               805.8986
 Red. masses --      4.0343                 4.3346                 2.8494
 Frc consts  --      1.3220                 1.5263                 1.0903
 IR Inten    --     24.1020                 6.0175                 8.3513

                     37                     38                     39
                      A                      A                      A
 Frequencies --    850.5447               855.8435               878.9331
 Red. masses --      1.4490                 1.4731                 3.0007
 Frc consts  --      0.6176                 0.6357                 1.3658
 IR Inten    --     13.4628                17.2195                 9.0755

                     40                     41                     42
                      A                      A                      A
 Frequencies --    913.9624               929.7874               949.5166
 Red. masses --      1.4231                 2.7595                 1.6228
 Frc consts  --      0.7004                 1.4055                 0.8620
 IR Inten    --     11.4369                30.9101                 0.6658

                     43                     44                     45
                      A                      A                      A
 Frequencies --    955.0114               966.9268               973.2714
 Red. masses --      1.5660                 1.9083                 1.4592
 Frc consts  --      0.8415                 1.0512                 0.8144
 IR Inten    --      0.1365                 2.7011                 2.7282

                     46                     47                     48
                      A                      A                      A
 Frequencies --    993.0561              1012.8422              1018.6876
 Red. masses --      1.2187                 4.3293                 1.8151
 Frc consts  --      0.7081                 2.6167                 1.1098
 IR Inten    --      0.4150                38.2146                11.2032

                     49                     50                     51
                      A                      A                      A
 Frequencies --   1041.4253              1047.7297              1075.5577
 Red. masses --      3.1006                 2.3702                 1.7712
 Frc consts  --      1.9813                 1.5330                 1.2072
 IR Inten    --     77.1585                27.3119                63.0118

                     52                     53                     54
                      A                      A                      A
 Frequencies --   1097.2144              1121.0428              1133.2513
 Red. masses --      1.6382                 1.9525                 1.8255
 Frc consts  --      1.1620                 1.4457                 1.3813
 IR Inten    --     42.9194                15.3011                43.5825

                     55                     56                     57
                      A                      A                      A
 Frequencies --   1170.1771              1197.8946              1226.6826
 Red. masses --      1.4685                 1.2273                 1.5360
 Frc consts  --      1.1847                 1.0376                 1.3618
 IR Inten    --     30.7550                20.2195                21.4103

                     58                     59                     60
                      A                      A                      A
 Frequencies --   1230.0141              1249.0450              1263.0402
 Red. masses --      2.1144                 1.1719                 1.3024
 Frc consts  --      1.8848                 1.0772                 1.2242
 IR Inten    --     97.6490                37.0380               101.2679

                     61                     62                     63
                      A                      A                      A
 Frequencies --   1274.0298              1288.2354              1305.2589
 Red. masses --      2.1209                 1.8079                 2.0802
 Frc consts  --      2.0283                 1.7677                 2.0881
 IR Inten    --     25.2941                94.8346                21.2133

                     64                     65                     66
                      A                      A                      A
 Frequencies --   1315.1218              1320.8299              1340.3170
 Red. masses --      2.6073                 2.1044                 1.3733
 Frc consts  --      2.6569                 2.1631                 1.4535
 IR Inten    --    185.2696                 2.1775                64.7224

                     67                     68                     69
                      A                      A                      A
 Frequencies --   1359.1442              1384.3672              1428.0087
 Red. masses --      1.6378                 1.7524                 1.5064
 Frc consts  --      1.7825                 1.9787                 1.8099
 IR Inten    --     14.2419                29.6346                78.9266

                     70                     71                     72
                      A                      A                      A
 Frequencies --   1435.6774              1443.7574              1445.6154
 Red. masses --      1.6840                 1.3139                 1.4558
 Frc consts  --      2.0450                 1.6136                 1.7925
 IR Inten    --     47.1426                70.1427                37.9382

                     73                     74                     75
                      A                      A                      A
 Frequencies --   1449.5232              1451.5868              1471.6073
 Red. masses --      1.2383                 1.2825                 1.2063
 Frc consts  --      1.5329                 1.5922                 1.5392
 IR Inten    --     46.8041                16.8476                11.6725

                     76                     77                     78
                      A                      A                      A
 Frequencies --   1507.2373              1512.1954              1514.9343
 Red. masses --      1.3080                 1.1241                 1.0833
 Frc consts  --      1.7507                 1.5145                 1.4648
 IR Inten    --     21.5414                 0.3774                 6.6558

                     79                     80                     81
                      A                      A                      A
 Frequencies --   1516.7438              1523.3568              1532.2271
 Red. masses --      1.3978                 1.0843                 1.0577
 Frc consts  --      1.8946                 1.4825                 1.4630
 IR Inten    --     52.9826                30.0323                20.8780

                     82                     83                     84
                      A                      A                      A
 Frequencies --   1534.6683              1542.0623              1547.0812
 Red. masses --      1.1503                 1.0650                 2.8976
 Frc consts  --      1.5962                 1.4921                 4.0862
 IR Inten    --      4.9449                27.8057               152.4772

                     85                     86                     87
                      A                      A                      A
 Frequencies --   1551.2883              1585.6719              1648.5855
 Red. masses --      1.0702                 1.1141                 4.8904
 Frc consts  --      1.5174                 1.6505                 7.8311
 IR Inten    --      1.9262                29.6907                80.2129

                     88                     89                     90
                      A                      A                      A
 Frequencies --   1680.7296              1683.0019              3013.1134
 Red. masses --      1.0654                 5.6207                 1.0852
 Frc consts  --      1.7732                 9.3801                 5.8051
 IR Inten    --    105.1965                54.3970                54.7526

                     91                     92                     93
                      A                      A                      A
 Frequencies --   3033.0338              3078.8360              3086.3639
 Red. masses --      1.0603                 1.1042                 1.0373
 Frc consts  --      5.7471                 6.1670                 5.8215
 IR Inten    --     62.0159                46.8888                14.9506

                     94                     95                     96
                      A                      A                      A
 Frequencies --   3089.1085              3094.8308              3149.6118
 Red. masses --      1.0358                 1.0376                 1.0672
 Frc consts  --      5.8236                 5.8554                 6.2375
 IR Inten    --     18.9640                 2.6481                 0.4467

                     97                     98                     99
                      A                      A                      A
 Frequencies --   3158.5889              3160.7167              3163.2180
 Red. masses --      1.0986                 1.1023                 1.1001
 Frc consts  --      6.4576                 6.4883                 6.4856
 IR Inten    --     12.9811                19.0285                19.7614

                    100                    101                    102
                      A                      A                      A
 Frequencies --   3170.4071              3173.6551              3175.6075
 Red. masses --      1.1007                 1.1013                 1.1015
 Frc consts  --      6.5187                 6.5353                 6.5444
 IR Inten    --     12.2799                26.7013                29.1080

                    103                    104                    105
                      A                      A                      A
 Frequencies --   3182.8328              3207.7340              3218.5869
 Red. masses --      1.0897                 1.0874                 1.1087
 Frc consts  --      6.5042                 6.5921                 6.7672
 IR Inten    --     19.0509                 6.6530                 2.2970

                    106                    107                    108
                      A                      A                      A
 Frequencies --   3221.5198              3436.1804              3450.4027
 Red. masses --      1.0951                 1.0529                 1.0658
 Frc consts  --      6.6964                 7.3244                 7.4759
 IR Inten    --     14.8860               100.9209               637.6370

                    109                    110                    111
                      A                      A                      A
 Frequencies --   3479.3443              3735.6440              3743.1440
 Red. masses --      1.0903                 1.0665                 1.0664
 Frc consts  --      7.7765                 8.7689                 8.8035
 IR Inten    --    138.5899                95.4306                80.2476

 - Thermochemistry -
 -------------------
 Temperature   298.150 Kelvin.  Pressure   1.00000 Atm.
 Atom     1 has atomic number  6 and mass  12.00000

 Molecular mass:   240.15997 amu.
 Principal axes and moments of inertia in atomic units:
                           1         2         3
     Eigenvalues --  1698.91006********************
           X            0.99999   0.00133  -0.00487
           Y           -0.00138   0.99994  -0.01043
           Z            0.00486   0.01043   0.99993
 This molecule is an asymmetric top.
 Rotational symmetry number  1.
 Warning -- assumption of classical behavior for rotation
           may cause significant error
 Rotational temperatures (Kelvin)      0.05098     0.00818     0.00789
 Rotational constants (GHZ):           1.06229     0.17048     0.16441
 Zero-point vibrational energy     914034.7 (Joules/Mol)
                                  218.45954 (Kcal/Mol)
 Warning -- explicit consideration of  30 degrees of freedom as
           vibrations may cause significant error
 Vibrational temperatures:     55.35    81.84   114.93   141.79   159.68
          (Kelvin)            204.70   218.76   279.43   302.41   346.65
                              384.42   397.32   413.32   426.50   432.81
                              454.37   481.63   495.23   508.69   535.94
                              581.06   611.90   622.21   671.49   676.20
                              681.01   709.86   779.62   863.62   886.74
                              944.19  1050.94  1064.58  1073.02  1112.28
                             1159.51  1223.74  1231.37  1264.59  1314.99
                             1337.76  1366.14  1374.05  1391.19  1400.32
                             1428.79  1457.25  1465.66  1498.38  1507.45
                             1547.49  1578.65  1612.93  1630.50  1683.62
                             1723.50  1764.92  1769.72  1797.10  1817.23
                             1833.04  1853.48  1877.98  1892.17  1900.38
                             1928.42  1955.51  1991.80  2054.59  2065.62
                             2077.24  2079.92  2085.54  2088.51  2117.31
                             2168.58  2175.71  2179.65  2182.26  2191.77
                             2204.53  2208.05  2218.68  2225.90  2231.96
                             2281.43  2371.95  2418.20  2421.46  4335.20
                             4363.86  4429.76  4440.59  4444.54  4452.77
                             4531.59  4544.50  4547.57  4551.17  4561.51
                             4566.18  4568.99  4579.39  4615.21  4630.83
                             4635.05  4943.90  4964.36  5006.00  5374.76
                             5385.55

 Zero-point correction=                           0.348137 (Hartree/Particle)
 Thermal correction to Energy=                    0.365753
 Thermal correction to Enthalpy=                  0.366698
 Thermal correction to Gibbs Free Energy=         0.303727
 Sum of electronic and zero-point Energies=           -788.574380
 Sum of electronic and thermal Energies=              -788.556764
 Sum of electronic and thermal Enthalpies=            -788.555819
 Sum of electronic and thermal Free Energies=         -788.618790

                     E (Thermal)             CV                S
                      KCal/Mol        Cal/Mol-Kelvin    Cal/Mol-Kelvin
 Total                  229.514             69.568            132.533
 Electronic               0.000              0.000              0.000
 Translational            0.889              2.981             42.330
 Rotational               0.889              2.981             33.645
 Vibrational            227.736             63.607             56.558
 Vibration     1          0.594              1.982              5.336
 Vibration     2          0.596              1.975              4.562
 Vibration     3          0.600              1.963              3.894
 Vibration     4          0.604              1.950              3.483
 Vibration     5          0.607              1.940              3.252
 Vibration     6          0.616              1.911              2.773
 Vibration     7          0.619              1.900              2.646
 Vibration     8          0.635              1.848              2.187
 Vibration     9          0.642              1.825              2.042
 Vibration    10          0.658              1.778              1.796
 Vibration    11          0.672              1.733              1.614
 Vibration    12          0.678              1.718              1.557
 Vibration    13          0.684              1.697              1.490
 Vibration    14          0.690              1.680              1.437
 Vibration    15          0.693              1.672              1.412
 Vibration    16          0.703              1.643              1.332
 Vibration    17          0.716              1.606              1.237
 Vibration    18          0.723              1.587              1.193
 Vibration    19          0.730              1.568              1.150
 Vibration    20          0.744              1.529              1.069
 Vibration    21          0.769              1.462              0.949
 Vibration    22          0.787              1.415              0.874
 Vibration    23          0.793              1.400              0.851
 Vibration    24          0.824              1.324              0.747
 Vibration    25          0.827              1.317              0.738
 Vibration    26          0.830              1.309              0.728
 Vibration    27          0.849              1.265              0.675
 Vibration    28          0.897              1.158              0.561
 Vibration    29          0.958              1.031              0.449
 Vibration    30          0.976              0.997              0.422

 Optimization completed.
    -- Stationary point found.
 Normal termination of Gaussian 16 at Sun Jul 18 18:00:43 2021.

 ----------------------------------------------------------------------
 #p b3lyp/6-31G(d) scrf=(iefpcm,read,solvent=n-octanol) geom=allcheck g
 uess=read
 ----------------------------------------------------------------------

 Structure from the checkpoint file:  "SET_328_BBB301_conf1.geo_165_120_315.chk"
 ---------------------------------------------
 SET_328_BBB301_conf1.geo_165_120_315 geometry
 ---------------------------------------------
 Charge =  1 Multiplicity = 1

 SCF Done:  E(RB3LYP) =  -788.924666128     A.U. after    1 cycles
 Normal termination of Gaussian 16 at Sun Jul 18 18:01:35 2021.

 -----------------------------
 #p B3LYP/6-31G* geom=allcheck
 -----------------------------

 Structure from the checkpoint file:  "SET_328_BBB301_conf1.geo_165_120_315.chk"
 ---------------------------------------------
 SET_328_BBB301_conf1.geo_165_120_315 geometry
 ---------------------------------------------
 Charge =  1 Multiplicity = 1

 SCF Done:  E(RB3LYP) =  -788.827805567     A.U. after   13 cycles
 Normal termination of Gaussian 16 at Sun Jul 18 18:03:33 2021.
 Gaussian 16:  ES64L-G16RevA.03 25-Dec-2016

 --------------------------------------------------------
 #p mp2/aug-cc-pVDZ scf=tight maxdisk=180GB geom=allcheck
 --------------------------------------------------------

 Structure from the checkpoint file:  "SET_328_BBB301_conf1.geo_165_120_315.chk"
 ---------------------------------------------
 SET_328_BBB301_conf1.geo_165_120_315 geometry
 ---------------------------------------------
 Charge =  1 Multiplicity = 1

                         Standard orientation:
 ---------------------------------------------------------------------
 Center     Atomic      Atomic             Coordinates (Angstroms)
 Number     Number       Type             X           Y           Z
 ---------------------------------------------------------------------
      1          6           0        5.428089   -0.334461    0.414105
      2          1           0        6.275056   -0.509060   -0.252526
      3          1           0        5.451924   -1.106444    1.187978
      4          1           0        5.572550    0.639829    0.886346
      5          6           0        4.133127   -0.383879   -0.401979
      6          6           0        4.122002    0.711015   -1.472825
      7          1           0        4.964577    0.545842   -2.147437
      8          1           0        4.235215    1.707859   -1.036035
      9          1           0        3.211560    0.691854   -2.073928
     10          6           0        3.923172   -1.771708   -1.008895
     11          1           0        4.749904   -1.989573   -1.686223
     12          1           0        2.998653   -1.831998   -1.586081
     13          1           0        3.909966   -2.548777   -0.239504
     14          7           0        2.981794   -0.119509    0.589793
     15          1           0        3.052665   -0.800246    1.358554
     16          6           0        1.581715   -0.140913    0.043513
     17          1           0        1.363745   -1.144626   -0.313821
     18          1           0        1.548701    0.557383   -0.791330
     19          6           0        0.590470    0.294216    1.122336
     20          8           0        1.121705    1.518577    1.618577
     21          1           0        0.549781    1.836199    2.337951
     22          1           0        0.568335   -0.465299    1.916193
     23          6           0       -0.795687    0.428281    0.536912
     24          6           0       -1.715515   -0.615958    0.646089
     25          1           0       -1.440826   -1.517940    1.187978
     26          6           0       -2.983665   -0.540749    0.070824
     27          6           0       -3.916509   -1.725326    0.110562
     28          8           0       -5.255513   -1.260906    0.363866
     29          1           0       -5.872112   -1.981831    0.154121
     30          1           0       -3.597946   -2.426415    0.890641
     31          1           0       -3.888982   -2.258145   -0.849043
     32          6           0       -3.351786    0.642178   -0.603898
     33          8           0       -4.576680    0.795150   -1.167360
     34          1           0       -5.155660    0.093350   -0.787674
     35          6           0       -2.439745    1.700410   -0.706475
     36          1           0       -2.749784    2.604032   -1.221507
     37          6           0       -1.170953    1.587775   -0.150795
     38          1           0       -0.471242    2.414539   -0.220433
     39          1           0        3.106981    0.798186    1.039713
 ---------------------------------------------------------------------

 SCF Done:  E(RHF) =  -784.038767544     A.U. after   16 cycles
 E2 =    -0.2635295607D+01 EUMP2 =    -0.78667406315138D+03

 The electronic state is 1-A.
 Alpha  occ. eigenvalues --  -20.71776 -20.68304 -20.66865 -15.84042 -11.45739
 Alpha  occ. eigenvalues --  -11.44444 -11.43996 -11.40554 -11.39740 -11.37639
 Alpha  occ. eigenvalues --  -11.37636 -11.37445 -11.35609 -11.35066 -11.34944
 Alpha  occ. eigenvalues --  -11.34503 -11.33217  -1.52051  -1.49177  -1.46515
 Alpha  occ. eigenvalues --   -1.46277  -1.26504  -1.24466  -1.18077  -1.14530
 Alpha  occ. eigenvalues --   -1.11290  -1.09914  -1.09074  -1.02763  -1.00512
 Alpha  occ. eigenvalues --   -0.95030  -0.93701  -0.92209  -0.90452  -0.84850
 Alpha  occ. eigenvalues --   -0.82698  -0.82199  -0.81632  -0.80447  -0.77834
 Alpha  occ. eigenvalues --   -0.77001  -0.75528  -0.74785  -0.72619  -0.71989
 Alpha  occ. eigenvalues --   -0.70827  -0.70651  -0.69840  -0.68836  -0.68650
 Alpha  occ. eigenvalues --   -0.68078  -0.67616  -0.66873  -0.66448  -0.65227
 Alpha  occ. eigenvalues --   -0.64173  -0.63487  -0.63202  -0.62541  -0.59266
 Alpha  occ. eigenvalues --   -0.58509  -0.57539  -0.55368  -0.44119  -0.40867
 Alpha virt. eigenvalues --   -0.07608  -0.05648  -0.05490  -0.04796  -0.03647
 Alpha virt. eigenvalues --   -0.03462  -0.03375  -0.03080  -0.02822  -0.02368
 Alpha virt. eigenvalues --   -0.01660  -0.01100  -0.00898  -0.00482  -0.00112

 Mulliken charges:
               1
     1  C    1.340398
     2  H    0.044234
     3  H   -0.019448
     4  H   -0.005669
     5  C   -3.478792
     6  C    1.303524
     7  H   -0.010741
     8  H   -0.002574
     9  H   -0.020302
    10  C    1.339101
    11  H    0.001809
    12  H   -0.042823
    13  H   -0.030456
    14  N   -0.708024
    15  H    0.214288
    16  C    0.726617
    17  H   -0.261376
    18  H   -0.230545
    19  C    1.616456
    20  O   -0.918117
    21  H    0.203807
    22  H   -0.291484
    23  C    0.654445
    24  C    0.403814
    25  H   -0.741007
    26  C   -0.180756
    27  C    1.187913
    28  O   -0.803254
    29  H    0.212504
    30  H   -0.206309
    31  H    0.024721
    32  C    0.502653
    33  O   -0.968151
    34  H    0.270452
    35  C    0.296377
    36  H   -0.522159
    37  C    0.576694
    38  H   -0.756571
    39  H    0.278751
 Sum of Mulliken charges =   1.00000

 Dipole moment (field-independent basis, Debye):
    X=             10.4833    Y=             -4.2389    Z=              1.7732  Tot=             11.4461
 Quadrupole moment (field-independent basis, Debye-Ang):
   XX=            -33.4405   YY=            -88.0412   ZZ=            -95.7382
   XY=             11.4682   XZ=              0.1797   YZ=              0.7496

 Normal termination of Gaussian 16 at Sun Jul 18 19:15:11 2021.
