 Gaussian 16, Revision A.03,

 ---------------------------------------------------------------
 #p b3lyp/6-31G(d) opt freq scrf=(iefpcm,read,solvent=n-octanol)
 ---------------------------------------------------------------

 ---------------------------------------------
 SET_328_BBB268_conf1.geo_300_135_285 geometry
 ---------------------------------------------
 Symbolic Z-matrix:
 Charge =  1 Multiplicity = 1

 SCF Done:  E(RB3LYP) =  -976.555992584     A.U. after   14 cycles
 SCF Done:  E(RB3LYP) =  -976.609107028     A.U. after   11 cycles
 SCF Done:  E(RB3LYP) =  -976.649007719     A.U. after   12 cycles
 SCF Done:  E(RB3LYP) =  -976.654751715     A.U. after   12 cycles
 SCF Done:  E(RB3LYP) =  -976.655606141     A.U. after   11 cycles
 SCF Done:  E(RB3LYP) =  -976.656752024     A.U. after   11 cycles
 SCF Done:  E(RB3LYP) =  -976.657006085     A.U. after   13 cycles
 SCF Done:  E(RB3LYP) =  -976.657768628     A.U. after   11 cycles
 SCF Done:  E(RB3LYP) =  -976.657910204     A.U. after   10 cycles
 SCF Done:  E(RB3LYP) =  -976.658155174     A.U. after   10 cycles
 SCF Done:  E(RB3LYP) =  -976.658727589     A.U. after   11 cycles
 SCF Done:  E(RB3LYP) =  -976.658974357     A.U. after   11 cycles
 SCF Done:  E(RB3LYP) =  -976.658663342     A.U. after   10 cycles
 SCF Done:  E(RB3LYP) =  -976.658988099     A.U. after   10 cycles
 SCF Done:  E(RB3LYP) =  -976.658987862     A.U. after    8 cycles
 SCF Done:  E(RB3LYP) =  -976.658988090     A.U. after    7 cycles
 Optimization completed.
    -- Stationary point found.
 Normal termination of Gaussian 16 at Sun Jul 18 19:45:38 2021.

 --------------------------------------------------------------------
 #P Geom=AllCheck Guess=TCheck SCRF=Check GenChk RB3LYP/6-31G(d) Freq
 --------------------------------------------------------------------

 Structure from the checkpoint file:  "SET_328_BBB268_conf1.geo_300_135_285.chk"
 ---------------------------------------------
 SET_328_BBB268_conf1.geo_300_135_285 geometry
 ---------------------------------------------
 Charge =  1 Multiplicity = 1

 SCF Done:  E(RB3LYP) =  -976.658988090     A.U. after    1 cycles

  Exact polarizability: 427.902  11.824 224.309  -5.079  39.361 195.073
 Approx polarizability: 475.958  16.402 287.636 -11.792  64.578 270.230

 ******    1 imaginary frequencies (negative Signs) ******

                      1                      2                      3
                      A                      A                      A
 Frequencies --    -12.2001                31.5158                40.4756
 Red. masses --      3.6654                 3.8061                 3.9270
 Frc consts  --      0.0003                 0.0022                 0.0038
 IR Inten    --      0.7828                 0.6675                 0.1478

                      4                      5                      6
                      A                      A                      A
 Frequencies --     48.2334                71.2507                76.9145
 Red. masses --      4.0935                 4.4408                 3.5331
 Frc consts  --      0.0056                 0.0133                 0.0123
 IR Inten    --      0.2213                 5.5066                 3.7291

                      7                      8                      9
                      A                      A                      A
 Frequencies --     89.9670               104.7338               106.1667
 Red. masses --      1.0911                 1.0564                 1.3293
 Frc consts  --      0.0052                 0.0068                 0.0088
 IR Inten    --      0.4727                 0.1601                 0.8711

                     10                     11                     12
                      A                      A                      A
 Frequencies --    119.1115               135.8987               148.5502
 Red. masses --      3.2303                 2.4495                 1.1796
 Frc consts  --      0.0270                 0.0267                 0.0153
 IR Inten    --      0.8227                 1.2539                 0.1964

                     13                     14                     15
                      A                      A                      A
 Frequencies --    156.3094               174.0019               194.2874
 Red. masses --      3.8799                 3.8861                 3.7742
 Frc consts  --      0.0559                 0.0693                 0.0839
 IR Inten    --      0.8877                 1.1689                 3.6889

                     16                     17                     18
                      A                      A                      A
 Frequencies --    233.2622               243.0199               251.6477
 Red. masses --      4.3021                 2.9083                 3.9225
 Frc consts  --      0.1379                 0.1012                 0.1464
 IR Inten    --      2.7136                 7.8379                 4.7893

                     19                     20                     21
                      A                      A                      A
 Frequencies --    300.7117               323.6430               330.7776
 Red. masses --      3.7972                 3.0422                 3.2043
 Frc consts  --      0.2023                 0.1877                 0.2066
 IR Inten    --      0.1612                 0.6100                 6.9886

                     22                     23                     24
                      A                      A                      A
 Frequencies --    352.3382               368.1086               391.6962
 Red. masses --      3.6909                 3.6291                 3.4810
 Frc consts  --      0.2700                 0.2897                 0.3147
 IR Inten    --      0.4244                 3.2880                 3.5978

                     25                     26                     27
                      A                      A                      A
 Frequencies --    406.8704               414.1088               451.2514
 Red. masses --      2.4912                 2.9006                 3.5596
 Frc consts  --      0.2430                 0.2931                 0.4271
 IR Inten    --      2.0986                 1.0294                13.5198

                     28                     29                     30
                      A                      A                      A
 Frequencies --    463.2686               489.5945               510.8384
 Red. masses --      3.6600                 4.2851                 4.1867
 Frc consts  --      0.4628                 0.6052                 0.6437
 IR Inten    --      0.4263                 7.6368                 3.9820

                     31                     32                     33
                      A                      A                      A
 Frequencies --    532.7907               579.9271               585.0662
 Red. masses --      3.2767                 4.7370                 3.1617
 Frc consts  --      0.5480                 0.9386                 0.6376
 IR Inten    --     29.1337                 1.3206                 0.4816

                     34                     35                     36
                      A                      A                      A
 Frequencies --    616.7213               624.7068               635.0835
 Red. masses --      1.9813                 1.8650                 6.0490
 Frc consts  --      0.4440                 0.4288                 1.4374
 IR Inten    --     36.6555               135.0653                 3.7247

                     37                     38                     39
                      A                      A                      A
 Frequencies --    650.5401               680.5128               706.0947
 Red. masses --      5.2776                 5.9833                 5.6589
 Frc consts  --      1.3159                 1.6325                 1.6623
 IR Inten    --      3.3859                 4.6046                 1.3754

                     40                     41                     42
                      A                      A                      A
 Frequencies --    731.0370               751.5025               759.7586
 Red. masses --      3.1456                 4.8175                 4.7079
 Frc consts  --      0.9904                 1.6030                 1.6011
 IR Inten    --      3.5013                 4.6698                 0.5682

                     43                     44                     45
                      A                      A                      A
 Frequencies --    791.8301               802.7166               826.4848
 Red. masses --      4.2467                 3.8673                 1.4686
 Frc consts  --      1.5688                 1.4682                 0.5911
 IR Inten    --      5.5912                20.0210                60.4045

                     46                     47                     48
                      A                      A                      A
 Frequencies --    828.7155               836.6594               845.3205
 Red. masses --      4.2762                 1.7020                 1.3319
 Frc consts  --      1.7303                 0.7019                 0.5607
 IR Inten    --      4.3232                18.0702                 4.7398

                     49                     50                     51
                      A                      A                      A
 Frequencies --    866.5327               881.3197               956.1816
 Red. masses --      1.3477                 4.6458                 2.5803
 Frc consts  --      0.5962                 2.1261                 1.3900
 IR Inten    --      0.9066                 2.4928                 5.9719

                     52                     53                     54
                      A                      A                      A
 Frequencies --    959.9076               970.4722               979.3380
 Red. masses --      1.3368                 1.3287                 2.6175
 Frc consts  --      0.7257                 0.7373                 1.4791
 IR Inten    --      1.4583                 1.0406                 1.0104

                     55                     56                     57
                      A                      A                      A
 Frequencies --    990.8061              1003.8344              1023.3546
 Red. masses --      1.3035                 2.4896                 1.5289
 Frc consts  --      0.7539                 1.4781                 0.9434
 IR Inten    --      0.1110                27.3766                 4.8860

                     58                     59                     60
                      A                      A                      A
 Frequencies --   1031.8500              1044.7480              1075.9326
 Red. masses --      2.1441                 2.2271                 2.1984
 Frc consts  --      1.3450                 1.4322                 1.4994
 IR Inten    --      1.9490                23.9751                 0.0141

                     61                     62                     63
                      A                      A                      A
 Frequencies --   1077.7697              1078.3794              1090.3269
 Red. masses --      1.5512                 1.5122                 1.3816
 Frc consts  --      1.0617                 1.0361                 0.9677
 IR Inten    --     10.6097                 8.1770                 7.4921

                     64                     65                     66
                      A                      A                      A
 Frequencies --   1135.3304              1155.4514              1170.1672
 Red. masses --      1.2204                 1.3840                 1.7797
 Frc consts  --      0.9268                 1.0886                 1.4358
 IR Inten    --      0.3779                12.7501                79.0345

                     67                     68                     69
                      A                      A                      A
 Frequencies --   1179.1977              1183.2865              1191.4812
 Red. masses --      1.3490                 1.4315                 2.7408
 Frc consts  --      1.1052                 1.1809                 2.2925
 IR Inten    --      3.6025                19.9945                12.5167

                     70                     71                     72
                      A                      A                      A
 Frequencies --   1220.8035              1226.0484              1246.6078
 Red. masses --      3.0928                 1.1569                 3.1260
 Frc consts  --      2.7158                 1.0246                 2.8622
 IR Inten    --     32.4120                11.5662                 3.5357

                     73                     74                     75
                      A                      A                      A
 Frequencies --   1255.8043              1278.3343              1288.4126
 Red. masses --      1.4131                 1.6164                 3.5112
 Frc consts  --      1.3130                 1.5563                 3.4341
 IR Inten    --      2.3031                28.3398                50.9191

                     76                     77                     78
                      A                      A                      A
 Frequencies --   1291.1865              1321.5180              1342.7761
 Red. masses --      3.0474                 1.9646                 2.5388
 Frc consts  --      2.9934                 2.0214                 2.6970
 IR Inten    --     21.4092                 1.3489                 0.5308

                     79                     80                     81
                      A                      A                      A
 Frequencies --   1357.9764              1362.3693              1396.7206
 Red. masses --      2.1197                 1.6715                 3.3783
 Frc consts  --      2.3031                 1.8279                 3.8830
 IR Inten    --      4.7524                14.9319                11.6408

                     82                     83                     84
                      A                      A                      A
 Frequencies --   1407.8186              1438.5876              1440.2707
 Red. masses --      4.4427                 2.2197                 1.4815
 Frc consts  --      5.1879                 2.7066                 1.8107
 IR Inten    --     15.0543                21.8500                 6.1306

                     85                     86                     87
                      A                      A                      A
 Frequencies --   1441.5947              1450.1877              1456.9720
 Red. masses --      1.3147                 1.4296                 1.8897
 Frc consts  --      1.6098                 1.7714                 2.3634
 IR Inten    --      1.6154                57.3998                67.4065

                     88                     89                     90
                      A                      A                      A
 Frequencies --   1458.9726              1488.5781              1489.4757
 Red. masses --      2.2700                 1.5454                 1.6640
 Frc consts  --      2.8469                 2.0177                 2.1751
 IR Inten    --     29.6664                 3.4743                85.3487

                     91                     92                     93
                      A                      A                      A
 Frequencies --   1500.3526              1504.0985              1508.6592
 Red. masses --      1.0549                 1.0423                 1.1978
 Frc consts  --      1.3991                 1.3893                 1.6062
 IR Inten    --     16.4388                10.7271                17.2664

                     94                     95                     96
                      A                      A                      A
 Frequencies --   1511.0520              1512.2329              1516.6969
 Red. masses --      1.0515                 1.0949                 1.1234
 Frc consts  --      1.4146                 1.4752                 1.5226
 IR Inten    --      9.5145                13.5113                10.1143

                     97                     98                     99
                      A                      A                      A
 Frequencies --   1524.0791              1532.9076              1558.4340
 Red. masses --      1.0446                 1.0960                 2.7530
 Frc consts  --      1.4296                 1.5173                 3.9395
 IR Inten    --     17.9544                 3.4802                97.8766

                    100                    101                    102
                      A                      A                      A
 Frequencies --   1564.7572              1574.7994              1616.1331
 Red. masses --      1.2806                 4.0754                 5.2997
 Frc consts  --      1.8474                 5.9549                 8.1556
 IR Inten    --     57.0047               102.1417                 2.5952

                    103                    104                    105
                      A                      A                      A
 Frequencies --   1623.5995              1653.4873              1673.7589
 Red. masses --      5.4564                 6.2559                 5.7368
 Frc consts  --      8.4745                10.0773                 9.4690
 IR Inten    --      0.7611                90.5473                63.9075

                    106                    107                    108
                      A                      A                      A
 Frequencies --   1715.8159              1742.8114              3057.1256
 Red. masses --      6.3546                 8.8772                 1.0391
 Frc consts  --     11.0225                15.8864                 5.7217
 IR Inten    --     55.4889               476.7317                33.4298

                    109                    110                    111
                      A                      A                      A
 Frequencies --   3063.8258              3068.0533              3069.3185
 Red. masses --      1.0373                 1.0430                 1.0593
 Frc consts  --      5.7372                 5.7843                 5.8798
 IR Inten    --     29.5553                63.5992                26.3651

                    112                    113                    114
                      A                      A                      A
 Frequencies --   3084.0537              3113.6625              3116.1734
 Red. masses --      1.0362                 1.0986                 1.1049
 Frc consts  --      5.8068                 6.2755                 6.3213
 IR Inten    --     23.5768                21.1248                62.5180

                    115                    116                    117
                      A                      A                      A
 Frequencies --   3121.0651              3121.5015              3145.5365
 Red. masses --      1.0980                 1.1053                 1.1022
 Frc consts  --      6.3019                 6.3454                 6.4251
 IR Inten    --      2.6804                 5.5150                21.7883

                    118                    119                    120
                      A                      A                      A
 Frequencies --   3146.7113              3167.2251              3198.7194
 Red. masses --      1.1019                 1.1033                 1.0969
 Frc consts  --      6.4286                 6.5207                 6.6125
 IR Inten    --      9.9978                13.1132                22.1496

                    121                    122                    123
                      A                      A                      A
 Frequencies --   3205.2761              3211.2094              3212.1732
 Red. masses --      1.0876                 1.0983                 1.0890
 Frc consts  --      6.5836                 6.6728                 6.6203
 IR Inten    --     14.3105                 2.4399                20.4767

                    124                    125                    126
                      A                      A                      A
 Frequencies --   3222.6218              3234.8237              3241.3705
 Red. masses --      1.0938                 1.0941                 1.0899
 Frc consts  --      6.6926                 6.7451                 6.7468
 IR Inten    --     16.3329                 3.7902                 1.4020

                    127                    128                    129
                      A                      A                      A
 Frequencies --   3260.6221              3288.8398              3585.0868
 Red. masses --      1.0962                 1.0928                 1.0846
 Frc consts  --      6.8666                 6.9640                 8.2135
 IR Inten    --      0.2549                 0.8732               360.6256

 - Thermochemistry -
 -------------------
 Temperature   298.150 Kelvin.  Pressure   1.00000 Atm.
 Atom     1 has atomic number  6 and mass  12.00000

 Molecular mass:   308.17629 amu.
 Principal axes and moments of inertia in atomic units:
                           1         2         3
     Eigenvalues --  3907.11338********************
           X            0.99996   0.00866   0.00351
           Y           -0.00862   0.99988  -0.01283
           Z           -0.00362   0.01280   0.99991
 This molecule is an asymmetric top.
 Rotational symmetry number  1.
 Warning -- assumption of classical behavior for rotation
           may cause significant error
 Rotational temperatures (Kelvin)      0.02217     0.00792     0.00654
 Rotational constants (GHZ):           0.46191     0.16498     0.13625
    1 imaginary frequencies ignored.
 Zero-point vibrational energy    1000612.7 (Joules/Mol)
                                  239.15217 (Kcal/Mol)
 Warning -- explicit consideration of  33 degrees of freedom as
           vibrations may cause significant error
 Vibrational temperatures:     45.34    58.24    69.40   102.51   110.66
          (Kelvin)            129.44   150.69   152.75   171.37   195.53
                              213.73   224.89   250.35   279.54   335.61
                              349.65   362.06   432.66   465.65   475.92
                              506.94   529.63   563.56   585.40   595.81
                              649.25   666.54   704.42   734.98   766.57
                              834.39   841.78   887.32   898.81   913.74
                              935.98   979.11  1015.91  1051.80  1081.24
                             1093.12  1139.27  1154.93  1189.13  1192.34
                             1203.77  1216.23  1246.75  1268.02  1375.73
                             1381.09  1396.29  1409.05  1425.55  1444.29
                             1472.38  1484.60  1503.16  1548.03  1550.67
                             1551.55  1568.74  1633.49  1662.44  1683.61
                             1696.60  1702.49  1714.28  1756.46  1764.01
                             1793.59  1806.82  1839.24  1853.74  1857.73
                             1901.37  1931.96  1953.83  1960.15  2009.57
                             2025.54  2069.81  2072.23  2074.13  2086.50
                             2096.26  2099.14  2141.73  2143.02  2158.67
                             2164.06  2170.62  2174.07  2175.77  2182.19
                             2192.81  2205.51  2242.24  2251.34  2265.79
                             2325.26  2336.00  2379.00  2408.17  2468.68
                             2507.52  4398.52  4408.16  4414.24  4416.06
                             4437.27  4479.87  4483.48  4490.52  4491.14
                             4525.73  4527.42  4556.93  4602.24  4611.68
                             4620.21  4621.60  4636.63  4654.19  4663.61
                             4691.31  4731.91  5158.14

 Zero-point correction=                           0.381113 (Hartree/Particle)
 Thermal correction to Energy=                    0.402370
 Thermal correction to Enthalpy=                  0.403314
 Thermal correction to Gibbs Free Energy=         0.330528
 Sum of electronic and zero-point Energies=           -976.277875
 Sum of electronic and thermal Energies=              -976.256618
 Sum of electronic and thermal Enthalpies=            -976.255674
 Sum of electronic and thermal Free Energies=         -976.328461

                     E (Thermal)             CV                S
                      KCal/Mol        Cal/Mol-Kelvin    Cal/Mol-Kelvin
 Total                  252.491             81.428            153.193
 Electronic               0.000              0.000              0.000
 Translational            0.889              2.981             43.073
 Rotational               0.889              2.981             34.692
 Vibrational            250.714             75.467             75.428
 Vibration     1          0.594              1.983              5.732
 Vibration     2          0.594              1.981              5.236
 Vibration     3          0.595              1.978              4.889
 Vibration     4          0.598              1.968              4.119
 Vibration     5          0.599              1.965              3.968
 Vibration     6          0.602              1.956              3.661
 Vibration     7          0.605              1.945              3.364
 Vibration     8          0.605              1.944              3.338
 Vibration     9          0.609              1.933              3.115
 Vibration    10          0.614              1.917              2.861
 Vibration    11          0.618              1.904              2.691
 Vibration    12          0.620              1.896              2.594
 Vibration    13          0.627              1.874              2.392
 Vibration    14          0.635              1.848              2.187
 Vibration    15          0.654              1.790              1.854
 Vibration    16          0.659              1.774              1.781
 Vibration    17          0.664              1.760              1.719
 Vibration    18          0.693              1.672              1.413
 Vibration    19          0.708              1.628              1.292
 Vibration    20          0.713              1.614              1.256
 Vibration    21          0.729              1.570              1.156
 Vibration    22          0.741              1.538              1.088
 Vibration    23          0.759              1.488              0.994
 Vibration    24          0.772              1.455              0.938
 Vibration    25          0.778              1.440              0.912
 Vibration    26          0.810              1.358              0.792
 Vibration    27          0.821              1.332              0.757
 Vibration    28          0.845              1.273              0.685
 Vibration    29          0.866              1.226              0.632
 Vibration    30          0.888              1.177              0.581
 Vibration    31          0.937              1.075              0.485
 Vibration    32          0.942              1.064              0.476
 Vibration    33          0.976              0.997              0.422

                           ! Non-Optimized Parameters !
 Normal termination of Gaussian 16 at Sun Jul 18 21:12:38 2021.

 ----------------------------------------------------------------------
 #p b3lyp/6-31G(d) scrf=(iefpcm,read,solvent=n-octanol) geom=allcheck g
 uess=read
 ----------------------------------------------------------------------

 Structure from the checkpoint file:  "SET_328_BBB268_conf1.geo_300_135_285.chk"
 ---------------------------------------------
 SET_328_BBB268_conf1.geo_300_135_285 geometry
 ---------------------------------------------
 Charge =  1 Multiplicity = 1

 SCF Done:  E(RB3LYP) =  -976.658988090     A.U. after    2 cycles
 Normal termination of Gaussian 16 at Sun Jul 18 21:15:03 2021.

 -----------------------------
 #p B3LYP/6-31G* geom=allcheck
 -----------------------------

 Structure from the checkpoint file:  "SET_328_BBB268_conf1.geo_300_135_285.chk"
 ---------------------------------------------
 SET_328_BBB268_conf1.geo_300_135_285 geometry
 ---------------------------------------------
 Charge =  1 Multiplicity = 1

 SCF Done:  E(RB3LYP) =  -976.577240519     A.U. after   16 cycles
 Normal termination of Gaussian 16 at Sun Jul 18 21:20:03 2021.
 Gaussian 16:  ES64L-G16RevA.03 25-Dec-2016

 --------------------------------------------------------
 #p mp2/aug-cc-pVDZ scf=tight maxdisk=180GB geom=allcheck
 --------------------------------------------------------

 Structure from the checkpoint file:  "SET_328_BBB268_conf1.geo_300_135_285.chk"
 ---------------------------------------------
 SET_328_BBB268_conf1.geo_300_135_285 geometry
 ---------------------------------------------
 Charge =  1 Multiplicity = 1

                         Standard orientation:
 ---------------------------------------------------------------------
 Center     Atomic      Atomic             Coordinates (Angstroms)
 Number     Number       Type             X           Y           Z
 ---------------------------------------------------------------------
      1          6           0       -2.459224    2.946590   -1.042468
      2          1           0       -3.041372    2.221587   -1.620549
      3          1           0       -2.387449    3.874233   -1.618951
      4          1           0       -2.951898    3.140035   -0.092559
      5          7           0       -1.126176    2.420532   -0.772972
      6          6           0       -0.336566    2.098406   -1.952472
      7          1           0       -0.297759    2.968323   -2.615773
      8          1           0       -0.786847    1.266124   -2.502957
      9          1           0        0.681669    1.825730   -1.683930
     10          6           0       -0.732436    2.251030    0.518948
     11          8           0       -1.429656    2.567011    1.482046
     12          6           0        0.671054    1.677803    0.778817
     13          1           0        0.828189    1.805530    1.852831
     14          1           0        1.410357    2.312221    0.277152
     15          6           0        0.915774    0.254894    0.381988
     16          6           0        0.103416   -0.825661    0.113987
     17          6           0       -1.354207   -0.993851    0.143569
     18          6           0       -2.003540   -1.665610   -0.906830
     19          6           0       -3.378403   -1.862524   -0.872238
     20          6           0       -4.148781   -1.401154    0.204668
     21          6           0       -5.641773   -1.604424    0.231624
     22          1           0       -5.906952   -2.643663    0.012180
     23          1           0       -6.137071   -0.979750   -0.521475
     24          1           0       -6.057659   -1.342884    1.207981
     25          6           0       -3.493324   -0.737394    1.246463
     26          6           0       -2.116333   -0.533972    1.225888
     27          1           0       -1.637614   -0.018763    2.050340
     28          1           0       -4.069797   -0.379234    2.093136
     29          1           0       -3.862553   -2.378224   -1.695455
     30          1           0       -1.432870   -2.016872   -1.759938
     31          7           0        0.925841   -1.883612   -0.244356
     32          6           0        2.220335   -1.511471   -0.181601
     33          6           0        3.413190   -2.202006   -0.422148
     34          1           0        3.380516   -3.240208   -0.724721
     35          6           0        4.594480   -1.517664   -0.258709
     36          1           0        5.533973   -2.026853   -0.436944
     37          6           0        4.614002   -0.152275    0.142086
     38          6           0        5.914301    0.581952    0.318084
     39          1           0        6.533085    0.097900    1.077639
     40          1           0        5.747231    1.616693    0.621978
     41          1           0        6.485161    0.587293   -0.613583
     42          6           0        3.420230    0.481597    0.371177
     43          1           0        3.342057    1.509990    0.690423
     44          7           0        2.234547   -0.195415    0.207980
     45          1           0        0.612202   -2.831436   -0.432756
 ---------------------------------------------------------------------

 SCF Done:  E(RHF) =  -970.460181891     A.U. after   18 cycles
 E2 =    -0.3339965366D+01 EUMP2 =    -0.97380014725624D+03

 The electronic state is 1-A.
 Alpha  occ. eigenvalues --  -20.62481 -15.82649 -15.78993 -15.69568 -11.50472
 Alpha  occ. eigenvalues --  -11.46606 -11.44856 -11.44625 -11.43420 -11.41866
 Alpha  occ. eigenvalues --  -11.41111 -11.40703 -11.38699 -11.37551 -11.36925
 Alpha  occ. eigenvalues --  -11.36120 -11.36016 -11.35480 -11.35348 -11.34667
 Alpha  occ. eigenvalues --  -11.34206 -11.33730 -11.31812  -1.55093  -1.48039
 Alpha  occ. eigenvalues --   -1.41573  -1.34714  -1.29772  -1.27287  -1.22576
 Alpha  occ. eigenvalues --   -1.19938  -1.16572  -1.13120  -1.12488  -1.10087
 Alpha  occ. eigenvalues --   -1.07153  -1.05113  -1.03696  -1.01278  -1.00566
 Alpha  occ. eigenvalues --   -0.96712  -0.93999  -0.91066  -0.89761  -0.85749
 Alpha  occ. eigenvalues --   -0.84412  -0.82381  -0.81504  -0.81232  -0.80246
 Alpha  occ. eigenvalues --   -0.78367  -0.77181  -0.75927  -0.75418  -0.74427
 Alpha  occ. eigenvalues --   -0.74356  -0.71874  -0.70808  -0.69869  -0.69422
 Alpha  occ. eigenvalues --   -0.69266  -0.68635  -0.67555  -0.67199  -0.66489
 Alpha  occ. eigenvalues --   -0.65882  -0.65812  -0.65326  -0.65161  -0.63047
 Alpha  occ. eigenvalues --   -0.62374  -0.61836  -0.60103  -0.59743  -0.59096
 Alpha  occ. eigenvalues --   -0.58308  -0.52337  -0.49401  -0.47125  -0.46321
 Alpha  occ. eigenvalues --   -0.44309  -0.41994
 Alpha virt. eigenvalues --   -0.07548  -0.06616  -0.05470  -0.04674  -0.04348
 Alpha virt. eigenvalues --   -0.03445  -0.03188  -0.02933  -0.02791  -0.02451
 Alpha virt. eigenvalues --   -0.01827  -0.01584  -0.01343  -0.01059  -0.00659

 Mulliken charges:
               1
     1  C    0.888401
     2  H   -0.067745
     3  H   -0.138462
     4  H   -0.269762
     5  N   -0.438881
     6  C    1.093309
     7  H   -0.159548
     8  H   -0.144737
     9  H   -0.422976
    10  C    0.842693
    11  O   -0.967369
    12  C    0.466698
    13  H   -0.105727
    14  H    0.019071
    15  C   -0.286743
    16  C    0.077644
    17  C    2.247397
    18  C    0.378697
    19  C    0.284839
    20  C   -0.064943
    21  C    0.695117
    22  H    0.072568
    23  H    0.137517
    24  H   -0.151248
    25  C   -0.082774
    26  C    0.251915
    27  H   -0.709917
    28  H   -0.695931
    29  H   -0.657478
    30  H   -0.817638
    31  N   -0.875770
    32  C   -0.500000
    33  C    1.439578
    34  H   -0.513790
    35  C    0.166605
    36  H   -0.609365
    37  C   -0.058013
    38  C    0.536680
    39  H    0.112275
    40  H   -0.145642
    41  H    0.117275
    42  C    1.815206
    43  H   -0.678211
    44  N   -0.982920
    45  H   -0.097893
 Sum of Mulliken charges =   1.00000

 Dipole moment (field-independent basis, Debye):
    X=              8.1975    Y=             -4.3202    Z=             -3.3644  Tot=              9.8581
 Quadrupole moment (field-independent basis, Debye-Ang):
   XX=            -58.8273   YY=           -114.3647   ZZ=           -132.9039
   XY=              0.6997   XZ=              4.8941   YZ=             -2.1859

 Normal termination of Gaussian 16 at Mon Jul 19 00:56:24 2021.
