 Gaussian 16, Revision A.03,

 ---------------------------------------------------------------
 #p b3lyp/6-31G(d) opt freq scrf=(iefpcm,read,solvent=n-octanol)
 ---------------------------------------------------------------

 ---------------------------------------------
 SET_328_BBB321_conf1.geo_180_345_240 geometry
 ---------------------------------------------
 Symbolic Z-matrix:
 Charge =  1 Multiplicity = 1

 SCF Done:  E(RB3LYP) =  -1212.41675195     A.U. after   18 cycles
 SCF Done:  E(RB3LYP) =  -1212.53533104     A.U. after   13 cycles
 SCF Done:  E(RB3LYP) =  -1212.66675244     A.U. after   14 cycles
 SCF Done:  E(RB3LYP) =  -1212.73842257     A.U. after   14 cycles
 SCF Done:  E(RB3LYP) =  -1212.76550193     A.U. after   12 cycles
 SCF Done:  E(RB3LYP) =  -1212.78033727     A.U. after   13 cycles
 SCF Done:  E(RB3LYP) =  -1212.78874552     A.U. after   12 cycles
 SCF Done:  E(RB3LYP) =  -1212.79746647     A.U. after   11 cycles
 SCF Done:  E(RB3LYP) =  -1212.80865350     A.U. after   14 cycles
 SCF Done:  E(RB3LYP) =  -1212.81254588     A.U. after   11 cycles
 SCF Done:  E(RB3LYP) =  -1212.81916343     A.U. after    8 cycles
 SCF Done:  E(RB3LYP) =  -1212.81916389     A.U. after    7 cycles
 SCF Done:  E(RB3LYP) =  -1212.81917057     A.U. after    8 cycles
 SCF Done:  E(RB3LYP) =  -1212.81916366     A.U. after    8 cycles
 SCF Done:  E(RB3LYP) =  -1212.81916296     A.U. after    6 cycles
 SCF Done:  E(RB3LYP) =  -1212.81916241     A.U. after    6 cycles
 Optimization completed.
    -- Stationary point found.
 Normal termination of Gaussian 16 at Sun Jul 18 19:31:08 2021.

 --------------------------------------------------------------------
 #P Geom=AllCheck Guess=TCheck SCRF=Check GenChk RB3LYP/6-31G(d) Freq
 --------------------------------------------------------------------

 Structure from the checkpoint file:  "SET_328_BBB321_conf1.geo_180_345_240.chk"
 ---------------------------------------------
 SET_328_BBB321_conf1.geo_180_345_240 geometry
 ---------------------------------------------
 Charge =  1 Multiplicity = 1

 SCF Done:  E(RB3LYP) =  -1212.81916241     A.U. after    1 cycles

  Exact polarizability: 334.224  -9.879 277.936  -9.103  -2.400  83.376
 Approx polarizability: 392.165 -16.413 346.730 -13.836  -3.835 111.779

                      1                      2                      3
                      A                      A                      A
 Frequencies --     29.2269                39.8983                67.7433
 Red. masses --      4.7023                 8.3305                 4.5486
 Frc consts  --      0.0024                 0.0078                 0.0123
 IR Inten    --      0.1531                 8.0603                 3.7201

                      4                      5                      6
                      A                      A                      A
 Frequencies --     74.1729                81.4115                90.8434
 Red. masses --      2.6422                 2.7157                 5.6451
 Frc consts  --      0.0086                 0.0106                 0.0274
 IR Inten    --      6.6869                 0.8518                 9.0671

                      7                      8                      9
                      A                      A                      A
 Frequencies --    111.3638               119.1834               142.4344
 Red. masses --      3.0777                 2.2453                 4.8064
 Frc consts  --      0.0225                 0.0188                 0.0575
 IR Inten    --      1.4053                 0.4304                11.3419

                     10                     11                     12
                      A                      A                      A
 Frequencies --    212.2280               240.2887               250.8350
 Red. masses --      6.0108                 1.5278                 2.8552
 Frc consts  --      0.1595                 0.0520                 0.1058
 IR Inten    --     11.2648               173.9451                80.1043

                     13                     14                     15
                      A                      A                      A
 Frequencies --    262.3229               269.4591               280.1551
 Red. masses --      4.2612                 4.4097                 4.4717
 Frc consts  --      0.1728                 0.1886                 0.2068
 IR Inten    --     11.6576                39.7898                28.1382

                     16                     17                     18
                      A                      A                      A
 Frequencies --    331.4492               338.9049               349.1416
 Red. masses --      3.2491                 6.7053                 1.5548
 Frc consts  --      0.2103                 0.4538                 0.1117
 IR Inten    --     68.4986                17.8263               158.6990

                     19                     20                     21
                      A                      A                      A
 Frequencies --    358.8546               412.1504               413.5851
 Red. masses --      3.8913                 3.5760                 1.2213
 Frc consts  --      0.2952                 0.3579                 0.1231
 IR Inten    --      0.7444                15.0503               130.6948

                     22                     23                     24
                      A                      A                      A
 Frequencies --    454.9142               495.2171               532.2659
 Red. masses --      3.3823                 4.9840                 2.3235
 Frc consts  --      0.4124                 0.7201                 0.3878
 IR Inten    --      1.5698                 4.4242                15.0186

                     25                     26                     27
                      A                      A                      A
 Frequencies --    543.4863               546.6829               550.1242
 Red. masses --      2.6784                 2.2562                 2.4948
 Frc consts  --      0.4661                 0.3973                 0.4448
 IR Inten    --    120.7308                76.7772                 2.6810

                     28                     29                     30
                      A                      A                      A
 Frequencies --    588.5377               611.8736               625.4490
 Red. masses --      2.9152                 1.4464                 8.8744
 Frc consts  --      0.5949                 0.3190                 2.0454
 IR Inten    --     25.0623               117.8888                 0.6294

                     31                     32                     33
                      A                      A                      A
 Frequencies --    629.1415               663.5610               668.5068
 Red. masses --      2.2472                 5.1758                 1.2625
 Frc consts  --      0.5241                 1.3427                 0.3324
 IR Inten    --      6.0182                 6.5861                 9.3347

                     34                     35                     36
                      A                      A                      A
 Frequencies --    695.1148               703.0354               708.2290
 Red. masses --      2.7869                 2.0201                 4.3707
 Frc consts  --      0.7934                 0.5883                 1.2917
 IR Inten    --      0.9802                 1.0299                 3.9535

                     37                     38                     39
                      A                      A                      A
 Frequencies --    711.0069               747.3550               814.1372
 Red. masses --      4.5688                 1.9397                 1.5950
 Frc consts  --      1.3608                 0.6383                 0.6229
 IR Inten    --      7.1681                72.8504                25.8774

                     40                     41                     42
                      A                      A                      A
 Frequencies --    827.6607               871.1099               885.6910
 Red. masses --      5.8234                 6.1886                 4.3209
 Frc consts  --      2.3504                 2.7669                 1.9971
 IR Inten    --     32.7011                25.5928                 1.5356

                     43                     44                     45
                      A                      A                      A
 Frequencies --    902.7172               921.6157               952.7174
 Red. masses --      1.5850                 1.3691                 5.1973
 Frc consts  --      0.7610                 0.6852                 2.7794
 IR Inten    --     25.4520                 0.9051                 0.8214

                     46                     47                     48
                      A                      A                      A
 Frequencies --    997.2617              1006.9621              1011.7790
 Red. masses --      1.2727                 4.7127                 4.4455
 Frc consts  --      0.7458                 2.8154                 2.6813
 IR Inten    --      2.0780                 0.4430                24.0265

                     49                     50                     51
                      A                      A                      A
 Frequencies --   1018.1630              1041.2497              1066.5992
 Red. masses --      4.5134                 1.7784                 1.6793
 Frc consts  --      2.7567                 1.1360                 1.1256
 IR Inten    --      7.2641                18.2003                13.7089

                     52                     53                     54
                      A                      A                      A
 Frequencies --   1091.8695              1114.4525              1126.6011
 Red. masses --      1.3918                 1.8373                 1.6780
 Frc consts  --      0.9776                 1.3445                 1.2548
 IR Inten    --      2.4720                16.8219                20.7408

                     55                     56                     57
                      A                      A                      A
 Frequencies --   1150.8463              1206.1993              1226.3072
 Red. masses --      1.6896                 1.1789                 1.6550
 Frc consts  --      1.3185                 1.0105                 1.4664
 IR Inten    --     16.7291                 2.1992                46.0477

                     58                     59                     60
                      A                      A                      A
 Frequencies --   1247.8980              1269.6466              1287.3980
 Red. masses --      2.6963                 2.6587                 2.3006
 Frc consts  --      2.4739                 2.5251                 2.2465
 IR Inten    --    191.3668               118.9568                58.8435

                     61                     62                     63
                      A                      A                      A
 Frequencies --   1347.5414              1362.4285              1379.1369
 Red. masses --      2.1853                 4.2754                 2.8679
 Frc consts  --      2.3380                 4.6758                 3.2138
 IR Inten    --    201.6419                24.4710                27.6331

                     64                     65                     66
                      A                      A                      A
 Frequencies --   1426.8542              1443.9033              1497.1061
 Red. masses --      1.2463                 2.8097                 1.0569
 Frc consts  --      1.4950                 3.4514                 1.3957
 IR Inten    --     36.2861               167.5430                10.9583

                     67                     68                     69
                      A                      A                      A
 Frequencies --   1499.8921              1515.2431              1539.5017
 Red. masses --      1.7300                 1.0856                 2.5477
 Frc consts  --      2.2931                 1.4685                 3.5576
 IR Inten    --     17.4100                12.0376               291.6978

                     70                     71                     72
                      A                      A                      A
 Frequencies --   1550.2735              1559.5734              1590.4611
 Red. masses --      2.4700                 3.7273                 2.6235
 Frc consts  --      3.4975                 5.3414                 3.9100
 IR Inten    --    540.7656               128.9518               287.4303

                     73                     74                     75
                      A                      A                      A
 Frequencies --   1602.9788              1624.6902              1649.8346
 Red. masses --      3.0319                 1.4084                 4.2325
 Frc consts  --      4.5901                 2.1903                 6.7879
 IR Inten    --     13.2454               364.0812                76.7445

                     76                     77                     78
                      A                      A                      A
 Frequencies --   1660.8258              1665.2941              1719.1089
 Red. masses --      1.6503                 5.5241                 3.8675
 Frc consts  --      2.6820                 9.0260                 6.7342
 IR Inten    --    819.8734               144.4622               882.9740

                     79                     80                     81
                      A                      A                      A
 Frequencies --   1771.6362              3083.7484              3153.2189
 Red. masses --      7.8926                 1.0365                 1.1011
 Frc consts  --     14.5954                 5.8076                 6.4503
 IR Inten    --    320.9028                 7.7517                13.1715

                     82                     83                     84
                      A                      A                      A
 Frequencies --   3172.3105              3210.9792              3226.9844
 Red. masses --      1.1038                 1.0872                 1.0931
 Frc consts  --      6.5449                 6.6047                 6.7065
 IR Inten    --     16.1709                14.1571                34.7271

                     85                     86                     87
                      A                      A                      A
 Frequencies --   3229.3553              3290.8490              3313.4408
 Red. masses --      1.0901                 1.0918                 1.0943
 Frc consts  --      6.6979                 6.9666                 7.0789
 IR Inten    --      0.7934                10.2950                 7.6462

                     88                     89                     90
                      A                      A                      A
 Frequencies --   3476.3002              3573.1334              3595.9260
 Red. masses --      1.0549                 1.0476                 1.0770
 Frc consts  --      7.5112                 7.8804                 8.2055
 IR Inten    --    413.1267               274.3561               259.9528

                     91                     92                     93
                      A                      A                      A
 Frequencies --   3618.5405              3641.5382              3684.3507
 Red. masses --      1.0775                 1.0997                 1.1085
 Frc consts  --      8.3126                 8.5923                 8.8657
 IR Inten    --     51.1303               403.9732               215.4027

 - Thermochemistry -
 -------------------
 Temperature   298.150 Kelvin.  Pressure   1.00000 Atm.
 Atom     1 has atomic number  6 and mass  12.00000

 Molecular mass:   276.09191 amu.
 Principal axes and moments of inertia in atomic units:
                           1         2         3
     Eigenvalues --  3365.81541********************
           X            1.00000   0.00286   0.00099
           Y           -0.00286   0.99999  -0.00204
           Z           -0.00099   0.00204   1.00000
 This molecule is an asymmetric top.
 Rotational symmetry number  1.
 Warning -- assumption of classical behavior for rotation
           may cause significant error
 Rotational temperatures (Kelvin)      0.02573     0.00798     0.00612
 Rotational constants (GHZ):           0.53620     0.16633     0.12744
 Zero-point vibrational energy     685855.0 (Joules/Mol)
                                  163.92327 (Kcal/Mol)
 Warning -- explicit consideration of  29 degrees of freedom as
           vibrations may cause significant error
 Vibrational temperatures:     42.05    57.40    97.47   106.72   117.13
          (Kelvin)            130.70   160.23   171.48   204.93   305.35
                              345.72   360.90   377.42   387.69   403.08
                              476.88   487.61   502.34   516.31   592.99
                              595.06   654.52   712.51   765.81   781.96
                              786.55   791.51   846.77   880.35   899.88
                              905.19   954.72   961.83  1000.12  1011.51
                             1018.98  1022.98  1075.28  1171.36  1190.82
                             1253.33  1274.31  1298.81  1326.00  1370.75
                             1434.84  1448.79  1455.72  1464.91  1498.13
                             1534.60  1570.96  1603.45  1620.93  1655.81
                             1735.45  1764.38  1795.45  1826.74  1852.28
                             1938.81  1960.23  1984.27  2052.92  2077.45
                             2154.00  2158.01  2180.10  2215.00  2230.50
                             2243.88  2288.32  2306.33  2337.57  2373.74
                             2389.56  2395.99  2473.41  2548.99  4436.83
                             4536.78  4564.25  4619.88  4642.91  4646.32
                             4734.80  4767.30  5001.62  5140.94  5173.74
                             5206.27  5239.36  5300.96

 Zero-point correction=                           0.261228 (Hartree/Particle)
 Thermal correction to Energy=                    0.279465
 Thermal correction to Enthalpy=                  0.280409
 Thermal correction to Gibbs Free Energy=         0.213870
 Sum of electronic and zero-point Energies=          -1212.557934
 Sum of electronic and thermal Energies=             -1212.539697
 Sum of electronic and thermal Enthalpies=           -1212.538753
 Sum of electronic and thermal Free Energies=        -1212.605293

                     E (Thermal)             CV                S
                      KCal/Mol        Cal/Mol-Kelvin    Cal/Mol-Kelvin
 Total                  175.367             69.443            140.044
 Electronic               0.000              0.000              0.000
 Translational            0.889              2.981             42.745
 Rotational               0.889              2.981             34.602
 Vibrational            173.590             63.482             62.697
 Vibration     1          0.593              1.984              5.881
 Vibration     2          0.594              1.981              5.264
 Vibration     3          0.598              1.970              4.218
 Vibration     4          0.599              1.966              4.039
 Vibration     5          0.600              1.962              3.857
 Vibration     6          0.602              1.956              3.642
 Vibration     7          0.607              1.940              3.245
 Vibration     8          0.609              1.933              3.114
 Vibration     9          0.616              1.911              2.771
 Vibration    10          0.643              1.822              2.024
 Vibration    11          0.657              1.779              1.801
 Vibration    12          0.663              1.761              1.725
 Vibration    13          0.670              1.742              1.646
 Vibration    14          0.674              1.729              1.600
 Vibration    15          0.680              1.710              1.533
 Vibration    16          0.714              1.613              1.253
 Vibration    17          0.719              1.598              1.217
 Vibration    18          0.726              1.577              1.170
 Vibration    19          0.734              1.557              1.127
 Vibration    20          0.776              1.444              0.919
 Vibration    21          0.777              1.441              0.914
 Vibration    22          0.813              1.350              0.781
 Vibration    23          0.851              1.261              0.670
 Vibration    24          0.887              1.179              0.582
 Vibration    25          0.899              1.154              0.558
 Vibration    26          0.902              1.147              0.551
 Vibration    27          0.905              1.139              0.544
 Vibration    28          0.946              1.056              0.470
 Vibration    29          0.971              1.007              0.430

 Optimization completed.
    -- Stationary point found.
 Normal termination of Gaussian 16 at Sun Jul 18 20:05:04 2021.

 ----------------------------------------------------------------------
 #p b3lyp/6-31G(d) scrf=(iefpcm,read,solvent=n-octanol) geom=allcheck g
 uess=read
 ----------------------------------------------------------------------

 Structure from the checkpoint file:  "SET_328_BBB321_conf1.geo_180_345_240.chk"
 ---------------------------------------------
 SET_328_BBB321_conf1.geo_180_345_240 geometry
 ---------------------------------------------
 Charge =  1 Multiplicity = 1

 SCF Done:  E(RB3LYP) =  -1212.81916241     A.U. after    1 cycles
 Normal termination of Gaussian 16 at Sun Jul 18 20:05:50 2021.

 -----------------------------
 #p B3LYP/6-31G* geom=allcheck
 -----------------------------

 Structure from the checkpoint file:  "SET_328_BBB321_conf1.geo_180_345_240.chk"
 ---------------------------------------------
 SET_328_BBB321_conf1.geo_180_345_240 geometry
 ---------------------------------------------
 Charge =  1 Multiplicity = 1

 SCF Done:  E(RB3LYP) =  -1212.69200584     A.U. after   17 cycles
 Normal termination of Gaussian 16 at Sun Jul 18 20:08:17 2021.
 Gaussian 16:  ES64L-G16RevA.03 25-Dec-2016

 --------------------------------------------------------
 #p mp2/aug-cc-pVDZ scf=tight maxdisk=180GB geom=allcheck
 --------------------------------------------------------

 Structure from the checkpoint file:  "SET_328_BBB321_conf1.geo_180_345_240.chk"
 ---------------------------------------------
 SET_328_BBB321_conf1.geo_180_345_240 geometry
 ---------------------------------------------
 Charge =  1 Multiplicity = 1

                         Standard orientation:
 ---------------------------------------------------------------------
 Center     Atomic      Atomic             Coordinates (Angstroms)
 Number     Number       Type             X           Y           Z
 ---------------------------------------------------------------------
      1          6           0       -4.999630    2.754926   -0.205944
      2          1           0       -5.346148    3.111892    0.768289
      3          1           0       -5.832080    2.849364   -0.905316
      4          1           0       -4.177995    3.392862   -0.538203
      5          6           0       -4.629570    1.288332   -0.087657
      6          8           0       -5.482184    0.418930    0.055008
      7          7           0       -3.279107    1.033316   -0.132448
      8          1           0       -2.674020    1.834113   -0.255081
      9          6           0       -2.614813   -0.203961   -0.016110
     10          6           0       -3.285373   -1.425182    0.144302
     11          6           0       -2.539758   -2.599048    0.248423
     12          6           0       -1.150723   -2.585325    0.198914
     13          1           0       -0.592240   -3.509541    0.295396
     14          1           0       -3.060939   -3.541798    0.375744
     15          1           0       -4.363560   -1.431879    0.186321
     16          6           0       -1.213623   -0.186090   -0.069026
     17          1           0       -0.688580    0.752775   -0.201602
     18          6           0       -0.472427   -1.366977    0.037428
     19          6           0        0.998165   -1.319359   -0.025055
     20          7           0        1.646444   -0.090894    0.010993
     21          6           0        1.835782   -2.395118   -0.129942
     22          1           0        1.581613   -3.440479   -0.196491
     23         16           0        3.497278   -1.892343   -0.179162
     24          6           0        2.936533   -0.232724   -0.062186
     25          7           0        3.850938    0.809999   -0.044727
     26          6           0        3.569551    2.138767    0.109309
     27          7           0        2.328190    2.550909    0.308506
     28          1           0        2.131712    3.540629    0.405789
     29          1           0        1.573143    1.868107    0.315448
     30          7           0        4.587130    2.991502    0.045963
     31          1           0        5.541237    2.663257   -0.048853
     32          1           0        4.434797    3.979065    0.216438
     33          1           0        4.834232    0.584421   -0.164108
 ---------------------------------------------------------------------

 SCF Done:  E(RHF) =  -1207.15335798     A.U. after   18 cycles
 E2 =    -0.2816348259D+01 EUMP2 =    -0.12099697062402D+04

 The electronic state is 1-A.
 Alpha  occ. eigenvalues --  -92.13662 -20.60954 -15.81877 -15.80447 -15.79153
 Alpha  occ. eigenvalues --  -15.72280 -15.69544 -11.61110 -11.51647 -11.44531
 Alpha  occ. eigenvalues --  -11.41365 -11.39205 -11.38411 -11.35626 -11.33936
 Alpha  occ. eigenvalues --  -11.33082 -11.32958 -11.32022 -11.31905  -9.13820
 Alpha  occ. eigenvalues --   -6.81982  -6.81874  -6.81682  -1.55564  -1.46382
 Alpha  occ. eigenvalues --   -1.45765  -1.39983  -1.39145  -1.34254  -1.24678
 Alpha  occ. eigenvalues --   -1.20588  -1.17035  -1.11893  -1.11048  -1.06957
 Alpha  occ. eigenvalues --   -1.05480  -0.99853  -0.99132  -0.95734  -0.93249
 Alpha  occ. eigenvalues --   -0.91908  -0.89353  -0.87038  -0.86151  -0.84626
 Alpha  occ. eigenvalues --   -0.83584  -0.82266  -0.80074  -0.77045  -0.76376
 Alpha  occ. eigenvalues --   -0.72556  -0.72318  -0.70963  -0.69911  -0.69810
 Alpha  occ. eigenvalues --   -0.68849  -0.66427  -0.64473  -0.64091  -0.63735
 Alpha  occ. eigenvalues --   -0.62769  -0.61889  -0.60927  -0.59744  -0.58389
 Alpha  occ. eigenvalues --   -0.58104  -0.53352  -0.52333  -0.49946  -0.47460
 Alpha  occ. eigenvalues --   -0.41404  -0.38891
 Alpha virt. eigenvalues --   -0.09472  -0.07568  -0.06005  -0.05110  -0.04178
 Alpha virt. eigenvalues --   -0.03956  -0.03911  -0.03099  -0.02294  -0.01795
 Alpha virt. eigenvalues --   -0.01499  -0.00888  -0.00589   0.00202   0.00561

 Mulliken charges:
               1
     1  C    0.487775
     2  H    0.068969
     3  H    0.030654
     4  H   -0.182421
     5  C    0.527957
     6  O   -0.852331
     7  N   -0.562891
     8  H   -0.045496
     9  C   -0.372785
    10  C    1.289853
    11  C   -0.054244
    12  C    0.860163
    13  H   -0.654115
    14  H   -0.516146
    15  H   -0.641103
    16  C    0.869358
    17  H   -0.807620
    18  C    1.673404
    19  C   -0.654886
    20  N   -0.661244
    21  C    0.485412
    22  H   -0.566749
    23  S    0.473799
    24  C    0.429123
    25  N   -0.699310
    26  C    1.357627
    27  N   -0.167960
    28  H    0.004986
    29  H    0.128018
    30  N   -0.265021
    31  H   -0.000026
    32  H    0.029223
    33  H   -0.011973
 Sum of Mulliken charges =   1.00000

 Dipole moment (field-independent basis, Debye):
    X=             17.4193    Y=             10.1454    Z=              0.0703  Tot=             20.1585
 Quadrupole moment (field-independent basis, Debye-Ang):
   XX=            -48.5998   YY=            -56.9019   ZZ=           -123.8900
   XY=             24.5068   XZ=              1.7661   YZ=              1.5746

 Normal termination of Gaussian 16 at Sun Jul 18 21:05:59 2021.
