 Gaussian 16, Revision A.03,

 ---------------------------------------------------------------
 #p b3lyp/6-31G(d) opt freq scrf=(iefpcm,read,solvent=n-octanol)
 ---------------------------------------------------------------

 --------------------------------------------
 SET_328_BBB29_conf1.geo_090_075_180 geometry
 --------------------------------------------
 Symbolic Z-matrix:
 Charge =  1 Multiplicity = 1

 SCF Done:  E(RB3LYP) =  -1548.96547144     A.U. after   13 cycles
 SCF Done:  E(RB3LYP) =  -1548.99088263     A.U. after   12 cycles
 SCF Done:  E(RB3LYP) =  -1548.97669848     A.U. after   12 cycles
 SCF Done:  E(RB3LYP) =  -1549.00174840     A.U. after   11 cycles
 SCF Done:  E(RB3LYP) =  -1549.00264993     A.U. after   11 cycles
 SCF Done:  E(RB3LYP) =  -1549.00302588     A.U. after   11 cycles
 SCF Done:  E(RB3LYP) =  -1549.00393142     A.U. after   11 cycles
 SCF Done:  E(RB3LYP) =  -1549.00421384     A.U. after   10 cycles
 SCF Done:  E(RB3LYP) =  -1549.00428965     A.U. after   11 cycles
 SCF Done:  E(RB3LYP) =  -1549.00309715     A.U. after   11 cycles
 SCF Done:  E(RB3LYP) =  -1549.00448707     A.U. after    8 cycles
 SCF Done:  E(RB3LYP) =  -1549.00449138     A.U. after    8 cycles
 SCF Done:  E(RB3LYP) =  -1549.00449073     A.U. after    8 cycles
 SCF Done:  E(RB3LYP) =  -1549.00448690     A.U. after    6 cycles
 SCF Done:  E(RB3LYP) =  -1549.00448699     A.U. after    7 cycles
 SCF Done:  E(RB3LYP) =  -1549.00448707     A.U. after    7 cycles
 Optimization completed.
    -- Stationary point found.
 Normal termination of Gaussian 16 at Sun Jul 18 16:30:24 2021.

 --------------------------------------------------------------------
 #P Geom=AllCheck Guess=TCheck SCRF=Check GenChk RB3LYP/6-31G(d) Freq
 --------------------------------------------------------------------

 Structure from the checkpoint file:  "SET_328_BBB29_conf1.geo_090_075_180.chk"
 --------------------------------------------
 SET_328_BBB29_conf1.geo_090_075_180 geometry
 --------------------------------------------
 Charge =  1 Multiplicity = 1

 SCF Done:  E(RB3LYP) =  -1549.00448707     A.U. after    1 cycles

  Exact polarizability: 337.596   1.621 189.507  -2.731 -54.435 204.055
 Approx polarizability: 392.614   1.271 239.343   4.508 -81.361 277.286

                      1                      2                      3
                      A                      A                      A
 Frequencies --     43.4294                44.4468                59.3508
 Red. masses --      4.4856                 7.3077                 4.6297
 Frc consts  --      0.0050                 0.0085                 0.0096
 IR Inten    --     18.9525                 5.9697                23.2182

                      4                      5                      6
                      A                      A                      A
 Frequencies --     95.0176               130.9229               134.9412
 Red. masses --      5.6704                 4.1581                 3.3516
 Frc consts  --      0.0302                 0.0420                 0.0360
 IR Inten    --      2.1938                 1.8447                 2.5754

                      7                      8                      9
                      A                      A                      A
 Frequencies --    146.6353               164.8768               215.3034
 Red. masses --      2.4958                 3.1261                 2.4818
 Frc consts  --      0.0316                 0.0501                 0.0678
 IR Inten    --     10.6610                 1.8201                 3.7683

                     10                     11                     12
                      A                      A                      A
 Frequencies --    235.5980               247.7167               266.1398
 Red. masses --      2.8037                 2.5432                 4.5957
 Frc consts  --      0.0917                 0.0919                 0.1918
 IR Inten    --      2.2564                 1.3980                 6.8989

                     13                     14                     15
                      A                      A                      A
 Frequencies --    285.5356               314.4937               323.0145
 Red. masses --      4.7126                 6.8072                 3.0131
 Frc consts  --      0.2264                 0.3967                 0.1852
 IR Inten    --      1.2330                 1.2336                 4.3288

                     16                     17                     18
                      A                      A                      A
 Frequencies --    369.7642               374.9385               391.4929
 Red. masses --      6.1779                 2.5857                 6.2463
 Frc consts  --      0.4977                 0.2142                 0.5641
 IR Inten    --      7.1986                10.0902                 4.0262

                     19                     20                     21
                      A                      A                      A
 Frequencies --    430.1655               450.0067               456.0813
 Red. masses --      4.6733                 5.1693                 3.4510
 Frc consts  --      0.5095                 0.6168                 0.4229
 IR Inten    --      3.3191                 6.4730                 0.8137

                     22                     23                     24
                      A                      A                      A
 Frequencies --    493.9405               512.2572               540.7191
 Red. masses --      5.0641                 4.4034                 4.2275
 Frc consts  --      0.7279                 0.6808                 0.7283
 IR Inten    --      7.7015                14.1653                 1.8647

                     25                     26                     27
                      A                      A                      A
 Frequencies --    564.4010               595.8802               605.7993
 Red. masses --      4.0530                 6.4995                 5.1636
 Frc consts  --      0.7607                 1.3597                 1.1165
 IR Inten    --      7.9152                 8.0542                 4.9434

                     28                     29                     30
                      A                      A                      A
 Frequencies --    636.5824               693.2139               711.2288
 Red. masses --      5.2078                 5.5336                 5.5128
 Frc consts  --      1.2434                 1.5667                 1.6430
 IR Inten    --      0.6497                 5.0613                 1.1008

                     31                     32                     33
                      A                      A                      A
 Frequencies --    735.0021               746.3527               764.3161
 Red. masses --      5.7093                 3.7152                 1.3424
 Frc consts  --      1.8172                 1.2193                 0.4620
 IR Inten    --      1.8547                 3.3598                82.5236

                     34                     35                     36
                      A                      A                      A
 Frequencies --    773.6090               814.0417               821.9540
 Red. masses --      1.6414                 2.6471                 1.3843
 Frc consts  --      0.5788                 1.0335                 0.5510
 IR Inten    --      3.4970                19.1735                30.1798

                     37                     38                     39
                      A                      A                      A
 Frequencies --    866.8805               874.2664               875.9949
 Red. masses --      1.8606                 1.3812                 1.4182
 Frc consts  --      0.8238                 0.6220                 0.6412
 IR Inten    --     13.7957                19.2686                 8.8378

                     40                     41                     42
                      A                      A                      A
 Frequencies --    933.2824               944.5212               953.2077
 Red. masses --      4.0741                 1.3555                 1.3002
 Frc consts  --      2.0908                 0.7125                 0.6961
 IR Inten    --    120.3523                 2.7327                 1.6526

                     43                     44                     45
                      A                      A                      A
 Frequencies --    959.6566               984.9232               991.9876
 Red. masses --      1.3727                 1.2619                 2.6486
 Frc consts  --      0.7448                 0.7212                 1.5356
 IR Inten    --     16.8691                 0.4799                14.8855

                     46                     47                     48
                      A                      A                      A
 Frequencies --   1023.5955              1047.8783              1067.4452
 Red. masses --      1.6060                 2.5817                 5.0785
 Frc consts  --      0.9914                 1.6703                 3.4094
 IR Inten    --      3.8675                15.5106                23.6816

                     49                     50                     51
                      A                      A                      A
 Frequencies --   1076.2511              1082.5651              1126.1967
 Red. masses --      2.9888                 2.7250                 3.4256
 Frc consts  --      2.0398                 1.8816                 2.5598
 IR Inten    --      8.4924                 6.9435                25.3160

                     52                     53                     54
                      A                      A                      A
 Frequencies --   1134.6047              1156.6709              1166.6472
 Red. masses --      2.1706                 1.5173                 1.6165
 Frc consts  --      1.6463                 1.1961                 1.2963
 IR Inten    --     56.3787                40.1911                11.8632

                     55                     56                     57
                      A                      A                      A
 Frequencies --   1174.2177              1176.6974              1197.5284
 Red. masses --      1.6399                 1.7435                 1.1237
 Frc consts  --      1.3322                 1.4224                 0.9494
 IR Inten    --     19.9600                23.2939                 1.2964

                     58                     59                     60
                      A                      A                      A
 Frequencies --   1263.7227              1283.9752              1310.2045
 Red. masses --      1.9255                 2.2166                 1.5076
 Frc consts  --      1.8117                 2.1530                 1.5248
 IR Inten    --    108.8420               119.9585                47.6557

                     61                     62                     63
                      A                      A                      A
 Frequencies --   1322.2692              1332.8454              1339.8879
 Red. masses --      1.6223                 1.6698                 4.0981
 Frc consts  --      1.6711                 1.7477                 4.3348
 IR Inten    --     46.5922                41.2188                19.8204

                     64                     65                     66
                      A                      A                      A
 Frequencies --   1355.9744              1357.2951              1369.5456
 Red. masses --      2.7534                 1.9134                 1.5019
 Frc consts  --      2.9828                 2.0769                 1.6597
 IR Inten    --      5.1516                16.7633                53.1844

                     67                     68                     69
                      A                      A                      A
 Frequencies --   1391.2536              1428.6930              1443.6336
 Red. masses --      1.2990                 1.9637                 1.4256
 Frc consts  --      1.4814                 2.3616                 1.7505
 IR Inten    --     10.3383                63.9246                15.7318

                     70                     71                     72
                      A                      A                      A
 Frequencies --   1464.3827              1490.2773              1501.5516
 Red. masses --      1.7425                 2.2625                 1.3350
 Frc consts  --      2.2016                 2.9606                 1.7734
 IR Inten    --     22.8819                16.6173               146.4889

                     73                     74                     75
                      A                      A                      A
 Frequencies --   1504.6419              1530.5705              1533.5681
 Red. masses --      1.7295                 1.0807                 2.6793
 Frc consts  --      2.3070                 1.4917                 3.7127
 IR Inten    --    257.3778                 8.3185                25.1765

                     76                     77                     78
                      A                      A                      A
 Frequencies --   1549.4535              1575.7620              1616.4502
 Red. masses --      1.1058                 1.1543                 6.6297
 Frc consts  --      1.5642                 1.6887                10.2064
 IR Inten    --      6.1472               181.4979                31.4706

                     79                     80                     81
                      A                      A                      A
 Frequencies --   1628.0561              1635.5100              1639.2637
 Red. masses --      6.2009                 6.1776                 1.0383
 Frc consts  --      9.6837                 9.7359                 1.6438
 IR Inten    --     87.0414                 5.7631                70.0073

                     82                     83                     84
                      A                      A                      A
 Frequencies --   1653.6218              1676.9499              3052.1029
 Red. masses --      6.3965                 1.0375                 1.0724
 Frc consts  --     10.3054                 1.7191                 5.8857
 IR Inten    --     33.0429                87.6465                50.3266

                     85                     86                     87
                      A                      A                      A
 Frequencies --   3092.9324              3122.4764              3135.6191
 Red. masses --      1.0600                 1.0666                 1.0977
 Frc consts  --      5.9744                 6.1272                 6.3587
 IR Inten    --     23.9717                11.2851                12.7049

                     88                     89                     90
                      A                      A                      A
 Frequencies --   3163.7103              3187.4121              3216.4681
 Red. masses --      1.0917                 1.1084                 1.0865
 Frc consts  --      6.4382                 6.6349                 6.6229
 IR Inten    --     19.7762                 9.9675                 2.8315

                     91                     92                     93
                      A                      A                      A
 Frequencies --   3221.5032              3224.1683              3239.5785
 Red. masses --      1.0904                 1.0898                 1.0919
 Frc consts  --      6.6676                 6.6744                 6.7519
 IR Inten    --     10.9193                 4.9629                28.9794

                     94                     95                     96
                      A                      A                      A
 Frequencies --   3245.3823              3250.2369              3268.1153
 Red. masses --      1.0959                 1.0941                 1.0905
 Frc consts  --      6.8005                 6.8097                 6.8626
 IR Inten    --     20.9076                 3.2766                 2.1062

                     97                     98                     99
                      A                      A                      A
 Frequencies --   3405.7090              3474.4631              3495.5026
 Red. masses --      1.0349                 1.0925                 1.0924
 Frc consts  --      7.0726                 7.7704                 7.8644
 IR Inten    --    107.5847               188.7895               179.1938

 - Thermochemistry -
 -------------------
 Temperature   298.150 Kelvin.  Pressure   1.00000 Atm.
 Atom     1 has atomic number  7 and mass  14.00307

 Molecular mass:   291.07227 amu.
 Principal axes and moments of inertia in atomic units:
                           1         2         3
     Eigenvalues --  4492.575467954.880239665.42447
           X            0.99956  -0.02183  -0.02024
           Y            0.02202   0.99972   0.00919
           Z            0.02003  -0.00963   0.99975
 This molecule is an asymmetric top.
 Rotational symmetry number  1.
 Warning -- assumption of classical behavior for rotation
           may cause significant error
 Rotational temperatures (Kelvin)      0.01928     0.01089     0.00896
 Rotational constants (GHZ):           0.40172     0.22687     0.18672
 Zero-point vibrational energy     759622.3 (Joules/Mol)
                                  181.55408 (Kcal/Mol)
 Warning -- explicit consideration of  27 degrees of freedom as
           vibrations may cause significant error
 Vibrational temperatures:     62.49    63.95    85.39   136.71   188.37
          (Kelvin)            194.15   210.98   237.22   309.77   338.97
                              356.41   382.92   410.82   452.49   464.75
                              532.01   539.45   563.27   618.91   647.46
                              656.20   710.67   737.02   777.97   812.05
                              857.34   871.61   915.90   997.38  1023.30
                             1057.50  1073.84  1099.68  1113.05  1171.22
                             1182.61  1247.25  1257.87  1260.36  1342.79
                             1358.96  1371.45  1380.73  1417.08  1427.25
                             1472.73  1507.66  1535.82  1548.49  1557.57
                             1620.35  1632.44  1664.19  1678.55  1689.44
                             1693.01  1722.98  1818.22  1847.35  1885.09
                             1902.45  1917.67  1927.80  1950.94  1952.84
                             1970.47  2001.70  2055.57  2077.07  2106.92
                             2144.18  2160.40  2164.84  2202.15  2206.46
                             2229.32  2267.17  2325.71  2342.41  2353.13
                             2358.53  2379.19  2412.76  4391.30  4450.04
                             4492.55  4511.46  4551.87  4585.98  4627.78
                             4635.02  4638.86  4661.03  4669.38  4676.37
                             4702.09  4900.06  4998.98  5029.25

 Zero-point correction=                           0.289325 (Hartree/Particle)
 Thermal correction to Energy=                    0.305960
 Thermal correction to Enthalpy=                  0.306904
 Thermal correction to Gibbs Free Energy=         0.244621
 Sum of electronic and zero-point Energies=          -1548.715162
 Sum of electronic and thermal Energies=             -1548.698527
 Sum of electronic and thermal Enthalpies=           -1548.697583
 Sum of electronic and thermal Free Energies=        -1548.759866

                     E (Thermal)             CV                S
                      KCal/Mol        Cal/Mol-Kelvin    Cal/Mol-Kelvin
 Total                  191.993             65.517            131.086
 Electronic               0.000              0.000              0.000
 Translational            0.889              2.981             42.903
 Rotational               0.889              2.981             34.201
 Vibrational            190.215             59.555             53.982
 Vibration     1          0.595              1.980              5.096
 Vibration     2          0.595              1.980              5.050
 Vibration     3          0.597              1.974              4.479
 Vibration     4          0.603              1.953              3.554
 Vibration     5          0.612              1.922              2.932
 Vibration     6          0.613              1.918              2.874
 Vibration     7          0.617              1.906              2.715
 Vibration     8          0.623              1.886              2.493
 Vibration     9          0.645              1.818              1.998
 Vibration    10          0.655              1.786              1.836
 Vibration    11          0.661              1.767              1.747
 Vibration    12          0.672              1.735              1.621
 Vibration    13          0.683              1.701              1.500
 Vibration    14          0.702              1.646              1.339
 Vibration    15          0.708              1.629              1.295
 Vibration    16          0.742              1.534              1.081
 Vibration    17          0.746              1.523              1.060
 Vibration    18          0.759              1.488              0.994
 Vibration    19          0.791              1.405              0.858
 Vibration    20          0.809              1.361              0.796
 Vibration    21          0.814              1.347              0.778
 Vibration    22          0.850              1.263              0.673
 Vibration    23          0.867              1.223              0.628
 Vibration    24          0.896              1.160              0.564
 Vibration    25          0.920              1.108              0.515
 Vibration    26          0.954              1.041              0.457
 Vibration    27          0.964              1.020              0.440

                           ! Non-Optimized Parameters !
 Normal termination of Gaussian 16 at Sun Jul 18 17:10:57 2021.

 ----------------------------------------------------------------------
 #p b3lyp/6-31G(d) scrf=(iefpcm,read,solvent=n-octanol) geom=allcheck g
 uess=read
 ----------------------------------------------------------------------

 Structure from the checkpoint file:  "SET_328_BBB29_conf1.geo_090_075_180.chk"
 --------------------------------------------
 SET_328_BBB29_conf1.geo_090_075_180 geometry
 --------------------------------------------
 Charge =  1 Multiplicity = 1

 SCF Done:  E(RB3LYP) =  -1549.00729695     A.U. after    1 cycles
 Normal termination of Gaussian 16 at Sun Jul 18 17:11:48 2021.

 -----------------------------
 #p B3LYP/6-31G* geom=allcheck
 -----------------------------

 Structure from the checkpoint file:  "SET_328_BBB29_conf1.geo_090_075_180.chk"
 --------------------------------------------
 SET_328_BBB29_conf1.geo_090_075_180 geometry
 --------------------------------------------
 Charge =  1 Multiplicity = 1

 SCF Done:  E(RB3LYP) =  -1548.87985944     A.U. after   15 cycles
 Normal termination of Gaussian 16 at Sun Jul 18 17:14:28 2021.
 Gaussian 16:  ES64L-G16RevA.03 25-Dec-2016

 --------------------------------------------------------
 #p mp2/aug-cc-pVDZ scf=tight maxdisk=180GB geom=allcheck
 --------------------------------------------------------

 Structure from the checkpoint file:  "SET_328_BBB29_conf1.geo_090_075_180.chk"
 --------------------------------------------
 SET_328_BBB29_conf1.geo_090_075_180 geometry
 --------------------------------------------
 Charge =  1 Multiplicity = 1

                         Standard orientation:
 ---------------------------------------------------------------------
 Center     Atomic      Atomic             Coordinates (Angstroms)
 Number     Number       Type             X           Y           Z
 ---------------------------------------------------------------------
      1          7           0       -0.987370    3.984359    1.683417
      2          1           0       -1.380705    4.800395    1.195749
      3          1           0       -0.522114    4.338093    2.529586
      4          6           0       -0.037408    3.206881    0.816824
      5          1           0        0.318892    2.364345    1.408151
      6          1           0        0.804790    3.866551    0.602024
      7          6           0       -0.711920    2.718032   -0.457158
      8          1           0       -0.966192    3.560479   -1.106175
      9          1           0       -1.642406    2.198743   -0.214238
     10          6           0        0.203657    1.766972   -1.237602
     11          1           0        1.145132    2.271146   -1.452586
     12          1           0       -0.256779    1.524016   -2.203490
     13          7           0        0.523523    0.567125   -0.464534
     14          6           0       -0.533291   -0.301837   -0.110282
     15          6           0       -1.774052   -0.253521   -0.757339
     16          1           0       -1.946472    0.438375   -1.568338
     17          6           0       -2.795903   -1.107978   -0.354284
     18         17           0       -4.347189   -1.001239   -1.171191
     19          6           0       -2.617585   -2.041276    0.660067
     20          1           0       -3.424648   -2.699827    0.953673
     21          6           0       -1.371407   -2.107949    1.283986
     22          1           0       -1.201548   -2.834663    2.070824
     23          6           0       -0.345427   -1.236931    0.924733
     24         16           0        1.194793   -1.228682    1.813887
     25          6           0        2.273803   -0.870766    0.437999
     26          6           0        1.829120    0.014502   -0.560218
     27          6           0        2.693781    0.312720   -1.620211
     28          1           0        2.363435    0.953357   -2.427572
     29          6           0        3.983444   -0.217451   -1.654605
     30          1           0        4.638695    0.040155   -2.479181
     31          6           0        4.418969   -1.085641   -0.656245
     32          1           0        5.416977   -1.504791   -0.686879
     33          6           0        3.551153   -1.427318    0.380786
     34          1           0        3.863651   -2.117722    1.156307
     35          1           0       -1.779860    3.410300    1.999315
 ---------------------------------------------------------------------

 SCF Done:  E(RHF) =  -1543.12744596     A.U. after   18 cycles
 E2 =    -0.2704719490D+01 EUMP2 =    -0.15458321654458D+04

 The electronic state is 1-A.
 Alpha  occ. eigenvalues -- -104.92759 -92.06705 -15.89560 -15.71098 -11.47094
 Alpha  occ. eigenvalues --  -11.41120 -11.40820 -11.40590 -11.40162 -11.39372
 Alpha  occ. eigenvalues --  -11.37582 -11.36813 -11.35577 -11.35522 -11.34583
 Alpha  occ. eigenvalues --  -11.34104 -11.33992 -11.33741 -11.32938 -10.65318
 Alpha  occ. eigenvalues --   -9.06820  -8.12097  -8.11761  -8.11750  -6.75020
 Alpha  occ. eigenvalues --   -6.74891  -6.74677  -1.50499  -1.40199  -1.28618
 Alpha  occ. eigenvalues --   -1.25851  -1.23087  -1.21497  -1.16180  -1.13960
 Alpha  occ. eigenvalues --   -1.11716  -1.10358  -1.08471  -1.01971  -1.00246
 Alpha  occ. eigenvalues --   -0.96237  -0.95384  -0.94347  -0.93094  -0.90889
 Alpha  occ. eigenvalues --   -0.87101  -0.85016  -0.82868  -0.80757  -0.78508
 Alpha  occ. eigenvalues --   -0.76670  -0.76147  -0.74289  -0.73261  -0.72924
 Alpha  occ. eigenvalues --   -0.71330  -0.70172  -0.69565  -0.67297  -0.67081
 Alpha  occ. eigenvalues --   -0.66384  -0.64526  -0.64026  -0.63029  -0.62181
 Alpha  occ. eigenvalues --   -0.60862  -0.58812  -0.57616  -0.55232  -0.54437
 Alpha  occ. eigenvalues --   -0.54132  -0.50295  -0.44682  -0.43248  -0.41558
 Alpha  occ. eigenvalues --   -0.38021
 Alpha virt. eigenvalues --   -0.10981  -0.07355  -0.07219  -0.05610  -0.03960
 Alpha virt. eigenvalues --   -0.03573  -0.02887  -0.02682  -0.02443  -0.01898
 Alpha virt. eigenvalues --   -0.01346  -0.01206  -0.00526  -0.00247   0.00006

 Mulliken charges:
               1
     1  N   -0.609653
     2  H    0.246758
     3  H    0.175912
     4  C    1.213076
     5  H   -0.184089
     6  H   -0.121399
     7  C    0.409465
     8  H   -0.139114
     9  H   -0.186824
    10  C    0.646533
    11  H   -0.542800
    12  H   -0.157551
    13  N   -0.122109
    14  C   -0.526629
    15  C    1.367003
    16  H   -0.716357
    17  C   -0.730625
    18  Cl  -0.334665
    19  C    0.827631
    20  H   -0.436586
    21  C    0.680609
    22  H   -0.547197
    23  C    0.400139
    24  S    0.236534
    25  C    0.342773
    26  C   -0.728389
    27  C    1.093894
    28  H   -0.704685
    29  C    0.377722
    30  H   -0.481315
    31  C    0.714757
    32  H   -0.436065
    33  C    0.233334
    34  H   -0.492101
    35  H    0.232012
 Sum of Mulliken charges =   1.00000

 Dipole moment (field-independent basis, Debye):
    X=             -1.6528    Y=             16.2351    Z=              4.9947  Tot=             17.0663
 Quadrupole moment (field-independent basis, Debye-Ang):
   XX=           -109.0242   YY=            -49.5058   ZZ=           -107.6541
   XY=            -16.7366   XZ=            -13.8770   YZ=             18.1159

 Normal termination of Gaussian 16 at Sun Jul 18 18:38:56 2021.
