 Gaussian 16, Revision A.03,

 ---------------------------------------------------------------
 #p b3lyp/6-31G(d) opt freq scrf=(iefpcm,read,solvent=n-octanol)
 ---------------------------------------------------------------

 --------------------------------------------
 SET_328_BBB30_conf1.geo_285_180_195 geometry
 --------------------------------------------
 Symbolic Z-matrix:
 Charge =  1 Multiplicity = 1

 SCF Done:  E(RB3LYP) =  -445.293405272     A.U. after   12 cycles
 SCF Done:  E(RB3LYP) =  -445.313621355     A.U. after   11 cycles
 SCF Done:  E(RB3LYP) =  -445.307870712     A.U. after   13 cycles
 SCF Done:  E(RB3LYP) =  -445.320704240     A.U. after   10 cycles
 SCF Done:  E(RB3LYP) =  -445.321026067     A.U. after   10 cycles
 SCF Done:  E(RB3LYP) =  -445.321157170     A.U. after   10 cycles
 SCF Done:  E(RB3LYP) =  -445.321243386     A.U. after   10 cycles
 SCF Done:  E(RB3LYP) =  -445.321260567     A.U. after    9 cycles
 SCF Done:  E(RB3LYP) =  -445.321373105     A.U. after    9 cycles
 SCF Done:  E(RB3LYP) =  -445.321261643     A.U. after    9 cycles
 SCF Done:  E(RB3LYP) =  -445.321452988     A.U. after    8 cycles
 SCF Done:  E(RB3LYP) =  -445.321447739     A.U. after    7 cycles
 SCF Done:  E(RB3LYP) =  -445.321460821     A.U. after    8 cycles
 SCF Done:  E(RB3LYP) =  -445.321461183     A.U. after    8 cycles
 SCF Done:  E(RB3LYP) =  -445.321465255     A.U. after    7 cycles
 SCF Done:  E(RB3LYP) =  -445.321468320     A.U. after    7 cycles
 Optimization completed.
    -- Stationary point found.
 Normal termination of Gaussian 16 at Sun Jul 18 14:58:53 2021.

 --------------------------------------------------------------------
 #P Geom=AllCheck Guess=TCheck SCRF=Check GenChk RB3LYP/6-31G(d) Freq
 --------------------------------------------------------------------

 Structure from the checkpoint file:  "SET_328_BBB30_conf1.geo_285_180_195.chk"
 --------------------------------------------
 SET_328_BBB30_conf1.geo_285_180_195 geometry
 --------------------------------------------
 Charge =  1 Multiplicity = 1

 SCF Done:  E(RB3LYP) =  -445.321468320     A.U. after    1 cycles

  Exact polarizability: 162.524   4.387 132.973 -19.388   9.463  85.194
 Approx polarizability: 182.775   6.126 174.700 -26.929  15.350 106.001

                      1                      2                      3
                      A                      A                      A
 Frequencies --     69.9143                75.1208               108.1256
 Red. masses --      3.1936                 3.5809                 2.9377
 Frc consts  --      0.0092                 0.0119                 0.0202
 IR Inten    --      0.3003                 1.0320                 1.4450

                      4                      5                      6
                      A                      A                      A
 Frequencies --    148.8405               213.6671               243.7282
 Red. masses --      1.7113                 1.1424                 3.0662
 Frc consts  --      0.0223                 0.0307                 0.1073
 IR Inten    --      6.1387                 2.5071                 3.3000

                      7                      8                      9
                      A                      A                      A
 Frequencies --    267.8843               286.2057               336.7629
 Red. masses --      2.1671                 2.4483                 1.8674
 Frc consts  --      0.0916                 0.1182                 0.1248
 IR Inten    --      4.5634                 8.4382                 0.9636

                     10                     11                     12
                      A                      A                      A
 Frequencies --    370.5925               420.1595               438.2308
 Red. masses --      2.1334                 2.9729                 2.8237
 Frc consts  --      0.1726                 0.3092                 0.3195
 IR Inten    --      0.7511                 0.0093                 2.4617

                     13                     14                     15
                      A                      A                      A
 Frequencies --    494.6917               534.0636               599.5704
 Red. masses --      2.2778                 2.8506                 4.9005
 Frc consts  --      0.3284                 0.4790                 1.0379
 IR Inten    --      5.8268                 6.0711                 1.8913

                     16                     17                     18
                      A                      A                      A
 Frequencies --    635.0669               717.0887               762.8206
 Red. masses --      6.2957                 2.0008                 1.7164
 Frc consts  --      1.4960                 0.6062                 0.5885
 IR Inten    --      0.0288                28.9317                39.5194

                     19                     20                     21
                      A                      A                      A
 Frequencies --    808.9613               843.0434               863.8849
 Red. masses --      3.5576                 2.3619                 1.2505
 Frc consts  --      1.3717                 0.9891                 0.5498
 IR Inten    --      2.9250                12.3995                 0.0169

                     22                     23                     24
                      A                      A                      A
 Frequencies --    878.9808               896.9387               929.5130
 Red. masses --      1.3598                 1.7691                 1.5561
 Frc consts  --      0.6190                 0.8386                 0.7921
 IR Inten    --     10.9842                 7.5654                 5.1136

                     25                     26                     27
                      A                      A                      A
 Frequencies --    940.2287               976.9605              1008.3956
 Red. masses --      1.4821                 1.3527                 1.2676
 Frc consts  --      0.7719                 0.7607                 0.7595
 IR Inten    --      1.0767                 0.0392                 0.0561

                     28                     29                     30
                      A                      A                      A
 Frequencies --   1010.2350              1019.0874              1049.4888
 Red. masses --      3.8482                 6.1357                 1.6015
 Frc consts  --      2.3139                 3.7544                 1.0393
 IR Inten    --     11.5663                 0.8707                40.0416

                     31                     32                     33
                      A                      A                      A
 Frequencies --   1057.1153              1087.9462              1099.6494
 Red. masses --      2.2041                 1.8013                 1.5285
 Frc consts  --      1.4512                 1.2562                 1.0890
 IR Inten    --      0.7136                12.7724                 6.2483

                     34                     35                     36
                      A                      A                      A
 Frequencies --   1136.9488              1180.7237              1192.7745
 Red. masses --      1.5083                 1.5271                 1.0967
 Frc consts  --      1.1488                 1.2543                 0.9193
 IR Inten    --     12.1055                 8.7477                 0.0465

                     37                     38                     39
                      A                      A                      A
 Frequencies --   1208.1195              1227.8912              1238.0542
 Red. masses --      1.1325                 1.5775                 2.9481
 Frc consts  --      0.9739                 1.4013                 2.6624
 IR Inten    --      0.2625                27.5540                 0.0491

                     40                     41                     42
                      A                      A                      A
 Frequencies --   1288.1029              1353.1978              1364.8020
 Red. masses --      1.5389                 1.3298                 1.4827
 Frc consts  --      1.5044                 1.4347                 1.6272
 IR Inten    --      0.2291                 0.9388                 1.6448

                     43                     44                     45
                      A                      A                      A
 Frequencies --   1366.0822              1386.8364              1407.7400
 Red. masses --      2.7795                 1.2699                 1.3277
 Frc consts  --      3.0561                 1.4390                 1.5502
 IR Inten    --      0.9665                 5.9817                 6.0289

                     46                     47                     48
                      A                      A                      A
 Frequencies --   1449.7172              1463.3127              1483.5429
 Red. masses --      1.2239                 1.1515                 1.1820
 Frc consts  --      1.5155                 1.4527                 1.5327
 IR Inten    --     24.4905                 9.3939                20.8723

                     49                     50                     51
                      A                      A                      A
 Frequencies --   1501.5701              1510.4359              1515.9860
 Red. masses --      1.9227                 1.0827                 1.0689
 Frc consts  --      2.5542                 1.4553                 1.4474
 IR Inten    --     16.7558                13.1331                10.7579

                     52                     53                     54
                      A                      A                      A
 Frequencies --   1523.4668              1533.2339              1545.0564
 Red. masses --      1.0662                 1.0750                 1.8288
 Frc consts  --      1.4580                 1.4890                 2.5723
 IR Inten    --     26.8797                10.2702                 6.6912

                     55                     56                     57
                      A                      A                      A
 Frequencies --   1546.4707              1560.7522              1647.9389
 Red. masses --      1.1957                 1.1792                 5.3382
 Frc consts  --      1.6849                 1.6924                 8.5413
 IR Inten    --     10.5662                86.6339                 2.5072

                     58                     59                     60
                      A                      A                      A
 Frequencies --   1665.3279              1682.7506              3060.5270
 Red. masses --      5.7197                 1.0681                 1.0608
 Frc consts  --      9.3460                 1.7821                 5.8543
 IR Inten    --      2.3624               120.8185                32.5845

                     61                     62                     63
                      A                      A                      A
 Frequencies --   3084.8661              3104.7470              3124.7467
 Red. masses --      1.0389                 1.1021                 1.0865
 Frc consts  --      5.8248                 6.2593                 6.2503
 IR Inten    --      8.1445                16.3921                17.2876

                     64                     65                     66
                      A                      A                      A
 Frequencies --   3127.9444              3158.1645              3169.0617
 Red. masses --      1.0325                 1.0995                 1.1020
 Frc consts  --      5.9519                 6.4612                 6.5206
 IR Inten    --      5.7046                18.1011                14.4126

                     67                     68                     69
                      A                      A                      A
 Frequencies --   3198.0440              3202.4125              3212.4252
 Red. masses --      1.0866                 1.0871                 1.0903
 Frc consts  --      6.5477                 6.5688                 6.6294
 IR Inten    --     11.5506                 5.7000                11.1775

                     70                     71                     72
                      A                      A                      A
 Frequencies --   3219.2428              3220.5010              3231.2764
 Red. masses --      1.0941                 1.1093                 1.0978
 Frc consts  --      6.6804                 6.7788                 6.7535
 IR Inten    --     48.4847                 3.3010                22.6278

                     73                     74                     75
                      A                      A                      A
 Frequencies --   3237.2440              3382.1023              3424.6370
 Red. masses --      1.1084                 1.0566                 1.0928
 Frc consts  --      6.8438                 7.1211                 7.5511
 IR Inten    --      4.6452               121.4895               149.5873

 - Thermochemistry -
 -------------------
 Temperature   298.150 Kelvin.  Pressure   1.00000 Atm.
 Atom     1 has atomic number  6 and mass  12.00000

 Molecular mass:   150.12827 amu.
 Principal axes and moments of inertia in atomic units:
                           1         2         3
     Eigenvalues --   653.506773532.386213762.91705
           X            1.00000   0.00209   0.00100
           Y           -0.00208   1.00000  -0.00232
           Z           -0.00100   0.00232   1.00000
 This molecule is an asymmetric top.
 Rotational symmetry number  1.
 Warning -- assumption of classical behavior for rotation
           may cause significant error
 Rotational temperatures (Kelvin)      0.13254     0.02452     0.02302
 Rotational constants (GHZ):           2.76163     0.51091     0.47961
 Zero-point vibrational energy     653949.0 (Joules/Mol)
                                  156.29757 (Kcal/Mol)
 Warning -- explicit consideration of  15 degrees of freedom as
           vibrations may cause significant error
 Vibrational temperatures:    100.59   108.08   155.57   214.15   307.42
          (Kelvin)            350.67   385.43   411.79   484.53   533.20
                              604.52   630.52   711.75   768.40   862.65
                              913.72  1031.73  1097.53  1163.91  1212.95
                             1242.94  1264.66  1290.49  1337.36  1352.78
                             1405.63  1450.86  1453.50  1466.24  1509.98
                             1520.95  1565.31  1582.15  1635.82  1698.80
                             1716.14  1738.21  1766.66  1781.28  1853.29
                             1946.95  1963.65  1965.49  1995.35  2025.42
                             2085.82  2105.38  2134.49  2160.42  2173.18
                             2181.17  2191.93  2205.98  2222.99  2225.03
                             2245.57  2371.02  2396.04  2421.10  4403.42
                             4438.43  4467.04  4495.81  4500.41  4543.89
                             4559.57  4601.27  4607.56  4621.96  4631.77
                             4633.58  4649.09  4657.67  4866.09  4927.29

 Zero-point correction=                           0.249076 (Hartree/Particle)
 Thermal correction to Energy=                    0.259874
 Thermal correction to Enthalpy=                  0.260818
 Thermal correction to Gibbs Free Energy=         0.212632
 Sum of electronic and zero-point Energies=           -445.072392
 Sum of electronic and thermal Energies=              -445.061595
 Sum of electronic and thermal Enthalpies=            -445.060650
 Sum of electronic and thermal Free Energies=         -445.108836

                     E (Thermal)             CV                S
                      KCal/Mol        Cal/Mol-Kelvin    Cal/Mol-Kelvin
 Total                  163.073             41.971            101.416
 Electronic               0.000              0.000              0.000
 Translational            0.889              2.981             40.929
 Rotational               0.889              2.981             30.542
 Vibrational            161.296             36.010             29.945
 Vibration     1          0.598              1.968              4.156
 Vibration     2          0.599              1.966              4.014
 Vibration     3          0.606              1.943              3.302
 Vibration     4          0.618              1.904              2.687
 Vibration     5          0.644              1.820              2.012
 Vibration     6          0.659              1.773              1.775
 Vibration     7          0.673              1.732              1.610
 Vibration     8          0.684              1.699              1.496
 Vibration     9          0.717              1.602              1.227
 Vibration    10          0.743              1.533              1.077
 Vibration    11          0.783              1.426              0.891
 Vibration    12          0.798              1.387              0.832
 Vibration    13          0.850              1.262              0.672
 Vibration    14          0.889              1.175              0.578
 Vibration    15          0.958              1.033              0.450

                           ! Non-Optimized Parameters !
 Normal termination of Gaussian 16 at Sun Jul 18 15:14:05 2021.

 ----------------------------------------------------------------------
 #p b3lyp/6-31G(d) scrf=(iefpcm,read,solvent=n-octanol) geom=allcheck g
 uess=read
 ----------------------------------------------------------------------

 Structure from the checkpoint file:  "SET_328_BBB30_conf1.geo_285_180_195.chk"
 --------------------------------------------
 SET_328_BBB30_conf1.geo_285_180_195 geometry
 --------------------------------------------
 Charge =  1 Multiplicity = 1

 SCF Done:  E(RB3LYP) =  -445.325552898     A.U. after    1 cycles
 Normal termination of Gaussian 16 at Sun Jul 18 15:14:37 2021.

 -----------------------------
 #p B3LYP/6-31G* geom=allcheck
 -----------------------------

 Structure from the checkpoint file:  "SET_328_BBB30_conf1.geo_285_180_195.chk"
 --------------------------------------------
 SET_328_BBB30_conf1.geo_285_180_195 geometry
 --------------------------------------------
 Charge =  1 Multiplicity = 1

 SCF Done:  E(RB3LYP) =  -445.225906735     A.U. after   13 cycles
 Normal termination of Gaussian 16 at Sun Jul 18 15:15:49 2021.
 Gaussian 16:  ES64L-G16RevA.03 25-Dec-2016

 --------------------------------------------------------
 #p mp2/aug-cc-pVDZ scf=tight maxdisk=180GB geom=allcheck
 --------------------------------------------------------

 Structure from the checkpoint file:  "SET_328_BBB30_conf1.geo_285_180_195.chk"
 --------------------------------------------
 SET_328_BBB30_conf1.geo_285_180_195 geometry
 --------------------------------------------
 Charge =  1 Multiplicity = 1

                         Standard orientation:
 ---------------------------------------------------------------------
 Center     Atomic      Atomic             Coordinates (Angstroms)
 Number     Number       Type             X           Y           Z
 ---------------------------------------------------------------------
      1          6           0       -4.031332   -0.527149   -0.485244
      2          1           0       -3.729067   -1.392144   -1.072842
      3          1           0       -4.167183    0.339584   -1.126113
      4          1           0       -4.950891   -0.740341    0.056350
      5          7           0       -2.950392   -0.234261    0.514108
      6          1           0       -2.893117   -1.023055    1.176912
      7          6           0       -1.570054    0.006888   -0.097518
      8          6           0       -1.586247    1.267796   -0.954760
      9          1           0       -2.291610    1.197511   -1.785079
     10          1           0       -0.591433    1.414637   -1.380997
     11          1           0       -1.828654    2.154948   -0.359923
     12          1           0       -1.398279   -0.872592   -0.722343
     13          6           0       -0.520588    0.048638    1.032271
     14          1           0       -0.696824   -0.788439    1.715760
     15          1           0       -0.648632    0.969449    1.611106
     16          6           0        0.899016   -0.034083    0.509945
     17          6           0        1.419210   -1.255776    0.060841
     18          1           0        0.804173   -2.149870    0.098780
     19          6           0        2.724939   -1.338041   -0.421284
     20          1           0        3.114725   -2.291874   -0.760852
     21          6           0        3.530629   -0.198301   -0.458063
     22          1           0        4.547876   -0.262940   -0.828584
     23          6           0        3.023875    1.021126   -0.009720
     24          1           0        3.645533    1.910092   -0.029087
     25          6           0        1.716155    1.100742    0.471055
     26          1           0        1.327506    2.049175    0.828069
     27          1           0       -3.224995    0.574643    1.094946
 ---------------------------------------------------------------------

 SCF Done:  E(RHF) =  -442.291955056     A.U. after   15 cycles
 E2 =    -0.1585411935D+01 EUMP2 =    -0.44387736699032D+03

 The electronic state is 1-A.
 Alpha  occ. eigenvalues --  -15.87235 -11.46450 -11.46369 -11.39474 -11.38545
 Alpha  occ. eigenvalues --  -11.36677 -11.35191 -11.35024 -11.34610 -11.34500
 Alpha  occ. eigenvalues --  -11.34229  -1.49014  -1.27559  -1.23053  -1.15049
 Alpha  occ. eigenvalues --   -1.13886  -1.12367  -1.07336  -1.00511  -0.94268
 Alpha  occ. eigenvalues --   -0.93744  -0.91537  -0.85289  -0.83285  -0.79997
 Alpha  occ. eigenvalues --   -0.78730  -0.75155  -0.74756  -0.73965  -0.73449
 Alpha  occ. eigenvalues --   -0.70584  -0.69365  -0.68857  -0.67915  -0.66279
 Alpha  occ. eigenvalues --   -0.65489  -0.60163  -0.60115  -0.59720  -0.44240
 Alpha  occ. eigenvalues --   -0.44023
 Alpha virt. eigenvalues --   -0.09377  -0.07162  -0.06567  -0.05396  -0.03968
 Alpha virt. eigenvalues --   -0.03591  -0.03492  -0.03415  -0.03147  -0.01757
 Alpha virt. eigenvalues --   -0.01330  -0.00667  -0.00441   0.00082   0.00351

 Mulliken charges:
               1
     1  C    0.807950
     2  H   -0.071890
     3  H   -0.108173
     4  H   -0.129262
     5  N   -0.548569
     6  H    0.194422
     7  C   -0.131725
     8  C    0.750346
     9  H   -0.130965
    10  H    0.008126
    11  H   -0.028936
    12  H   -0.423650
    13  C    0.776055
    14  H   -0.234930
    15  H   -0.181958
    16  C    1.091933
    17  C    0.370950
    18  H   -0.705331
    19  C    0.116705
    20  H   -0.452557
    21  C    0.658713
    22  H   -0.420587
    23  C    0.217474
    24  H   -0.440634
    25  C    0.479194
    26  H   -0.671558
    27  H    0.208857
 Sum of Mulliken charges =   1.00000

 Dipole moment (field-independent basis, Debye):
    X=            -10.9506    Y=             -0.6495    Z=              0.9297  Tot=             11.0092
 Quadrupole moment (field-independent basis, Debye-Ang):
   XX=            -13.4643   YY=            -57.6019   ZZ=            -64.4368
   XY=              3.8667   XZ=             -6.1773   YZ=              1.0081

 Normal termination of Gaussian 16 at Sun Jul 18 15:29:29 2021.
