 Gaussian 16, Revision A.03,

 ---------------------------------------------------------------
 #p b3lyp/6-31G(d) opt freq scrf=(iefpcm,read,solvent=n-octanol)
 ---------------------------------------------------------------

 ---------------------------------------------
 SET_328_BBB301_conf1.geo_090_285_090 geometry
 ---------------------------------------------
 Symbolic Z-matrix:
 Charge =  1 Multiplicity = 1

 SCF Done:  E(RB3LYP) =  -788.768957737     A.U. after   13 cycles
 SCF Done:  E(RB3LYP) =  -788.832656596     A.U. after   13 cycles
 SCF Done:  E(RB3LYP) =  -788.835548738     A.U. after   12 cycles
 SCF Done:  E(RB3LYP) =  -788.879234571     A.U. after   11 cycles
 SCF Done:  E(RB3LYP) =  -788.888817596     A.U. after   11 cycles
 SCF Done:  E(RB3LYP) =  -788.895064727     A.U. after   12 cycles
 SCF Done:  E(RB3LYP) =  -788.899235236     A.U. after   11 cycles
 SCF Done:  E(RB3LYP) =  -788.901042166     A.U. after   11 cycles
 SCF Done:  E(RB3LYP) =  -788.901572862     A.U. after   11 cycles
 SCF Done:  E(RB3LYP) =  -788.902254348     A.U. after   10 cycles
 SCF Done:  E(RB3LYP) =  -788.911046676     A.U. after    9 cycles
 SCF Done:  E(RB3LYP) =  -788.911030561     A.U. after    8 cycles
 SCF Done:  E(RB3LYP) =  -788.911054115     A.U. after    8 cycles
 SCF Done:  E(RB3LYP) =  -788.911029205     A.U. after    8 cycles
 SCF Done:  E(RB3LYP) =  -788.911039358     A.U. after    7 cycles
 SCF Done:  E(RB3LYP) =  -788.911053167     A.U. after    8 cycles
 Optimization completed.
    -- Stationary point found.
 Normal termination of Gaussian 16 at Sun Jul 18 16:45:38 2021.

 --------------------------------------------------------------------
 #P Geom=AllCheck Guess=TCheck SCRF=Check GenChk RB3LYP/6-31G(d) Freq
 --------------------------------------------------------------------

 Structure from the checkpoint file:  "SET_328_BBB301_conf1.geo_090_285_090.chk"
 ---------------------------------------------
 SET_328_BBB301_conf1.geo_090_285_090 geometry
 ---------------------------------------------
 Charge =  1 Multiplicity = 1

 SCF Done:  E(RB3LYP) =  -788.911053167     A.U. after    1 cycles

  Exact polarizability: 206.386  10.907 185.413 -32.159  12.117 153.052
 Approx polarizability: 232.694  14.627 232.687 -44.716  16.726 187.872

                      1                      2                      3
                      A                      A                      A
 Frequencies --     44.1973                50.7859                55.7052
 Red. masses --      4.2124                 4.8010                 4.0991
 Frc consts  --      0.0048                 0.0073                 0.0075
 IR Inten    --      0.0993                 0.7519                 0.5857

                      4                      5                      6
                      A                      A                      A
 Frequencies --     70.2736               110.8505               128.6517
 Red. masses --      2.9583                 3.9311                 4.7440
 Frc consts  --      0.0086                 0.0285                 0.0463
 IR Inten    --      1.4446                 0.4830                 2.7637

                      7                      8                      9
                      A                      A                      A
 Frequencies --    144.5734               180.6782               191.8394
 Red. masses --      4.5150                 3.2925                 2.5259
 Frc consts  --      0.0556                 0.0633                 0.0548
 IR Inten    --     24.7787                29.0294                18.1117

                     10                     11                     12
                      A                      A                      A
 Frequencies --    198.9949               209.0500               239.6779
 Red. masses --      2.6240                 1.2389                 1.3103
 Frc consts  --      0.0612                 0.0319                 0.0443
 IR Inten    --     19.9500               142.4276                 5.6051

                     13                     14                     15
                      A                      A                      A
 Frequencies --    263.6105               279.5277               288.3358
 Red. masses --      1.1426                 2.1605                 1.3907
 Frc consts  --      0.0468                 0.0995                 0.0681
 IR Inten    --    148.1524                 0.4162                 1.8177

                     16                     17                     18
                      A                      A                      A
 Frequencies --    306.7685               310.5304               336.7007
 Red. masses --      2.1030                 1.1202                 3.3580
 Frc consts  --      0.1166                 0.0636                 0.2243
 IR Inten    --      0.7704                 0.3010                 3.2723

                     19                     20                     21
                      A                      A                      A
 Frequencies --    357.1510               360.1072               371.9722
 Red. masses --      2.6300                 2.2489                 3.7471
 Frc consts  --      0.1977                 0.1718                 0.3055
 IR Inten    --      4.8626                 4.5455                 1.1768

                     22                     23                     24
                      A                      A                      A
 Frequencies --    398.8272               411.1890               452.7936
 Red. masses --      1.1314                 3.4889                 2.6920
 Frc consts  --      0.1060                 0.3476                 0.3252
 IR Inten    --    151.8466                11.7348                11.4691

                     25                     26                     27
                      A                      A                      A
 Frequencies --    475.6941               482.6748               507.2872
 Red. masses --      2.6784                 3.5670                 3.6414
 Frc consts  --      0.3571                 0.4896                 0.5521
 IR Inten    --      4.4711                 4.6716                14.4385

                     28                     29                     30
                      A                      A                      A
 Frequencies --    529.1907               537.9637               584.0850
 Red. masses --      3.2151                 3.0126                 3.7257
 Frc consts  --      0.5305                 0.5137                 0.7489
 IR Inten    --      2.5942                 8.1339                 8.1655

                     31                     32                     33
                      A                      A                      A
 Frequencies --    612.2481               670.7479               729.5623
 Red. masses --      4.9553                 5.2287                 3.9585
 Frc consts  --      1.0944                 1.3860                 1.2414
 IR Inten    --     20.7221                12.1279                14.3313

                     34                     35                     36
                      A                      A                      A
 Frequencies --    763.4354               790.1197               805.2130
 Red. masses --      4.3993                 4.0390                 3.0782
 Frc consts  --      1.5107                 1.4856                 1.1759
 IR Inten    --     12.4404                16.1893                17.1864

                     37                     38                     39
                      A                      A                      A
 Frequencies --    834.0347               865.6870               893.4053
 Red. masses --      1.7240                 1.7503                 1.9929
 Frc consts  --      0.7066                 0.7728                 0.9372
 IR Inten    --     24.8185                10.0801                19.9003

                     40                     41                     42
                      A                      A                      A
 Frequencies --    906.3172               940.9870               948.4709
 Red. masses --      2.6440                 1.4257                 1.3419
 Frc consts  --      1.2796                 0.7438                 0.7112
 IR Inten    --      6.9072                 6.0094                 9.5679

                     43                     44                     45
                      A                      A                      A
 Frequencies --    956.4568               962.2254               965.5648
 Red. masses --      1.6264                 2.0565                 1.7769
 Frc consts  --      0.8766                 1.1219                 0.9761
 IR Inten    --      0.7449                18.2635                 7.2451

                     46                     47                     48
                      A                      A                      A
 Frequencies --   1001.0622              1006.6988              1017.9721
 Red. masses --      1.5558                 1.4607                 2.1472
 Frc consts  --      0.9186                 0.8722                 1.3110
 IR Inten    --      3.0443                 5.8064                16.6937

                     49                     50                     51
                      A                      A                      A
 Frequencies --   1040.1704              1053.5043              1088.6177
 Red. masses --      2.3581                 5.0149                 2.2596
 Frc consts  --      1.5032                 3.2793                 1.5777
 IR Inten    --     17.3933                74.6032                52.1157

                     52                     53                     54
                      A                      A                      A
 Frequencies --   1097.8458              1123.3976              1136.5875
 Red. masses --      1.6182                 1.8601                 1.9447
 Frc consts  --      1.1491                 1.3831                 1.4802
 IR Inten    --     13.2061                 7.0823               163.7968

                     55                     56                     57
                      A                      A                      A
 Frequencies --   1186.6151              1200.8039              1214.0689
 Red. masses --      1.4874                 1.3236                 1.3007
 Frc consts  --      1.2340                 1.1245                 1.1296
 IR Inten    --      2.1360                49.7904                36.8976

                     58                     59                     60
                      A                      A                      A
 Frequencies --   1229.2157              1231.5525              1250.5909
 Red. masses --      1.8357                 1.4014                 1.2552
 Frc consts  --      1.6342                 1.2523                 1.1567
 IR Inten    --    128.9183                99.2684                32.3285

                     61                     62                     63
                      A                      A                      A
 Frequencies --   1264.1719              1270.1182              1287.6666
 Red. masses --      1.2564                 2.0008                 1.5240
 Frc consts  --      1.1830                 1.9017                 1.4888
 IR Inten    --     15.2878                38.0004                38.9261

                     64                     65                     66
                      A                      A                      A
 Frequencies --   1321.5212              1332.7429              1338.8484
 Red. masses --      3.1900                 1.8437                 1.6963
 Frc consts  --      3.2824                 1.9294                 1.7915
 IR Inten    --    122.0060                45.1131                30.2556

                     67                     68                     69
                      A                      A                      A
 Frequencies --   1348.8247              1387.9479              1393.2320
 Red. masses --      1.4822                 1.4600                 2.4803
 Frc consts  --      1.5888                 1.6570                 2.8366
 IR Inten    --    104.4500                27.2230                50.1638

                     70                     71                     72
                      A                      A                      A
 Frequencies --   1430.7962              1444.8160              1449.6014
 Red. masses --      1.3481                 1.2683                 1.2496
 Frc consts  --      1.6261                 1.5599                 1.5471
 IR Inten    --     16.4137                60.3824                36.8916

                     73                     74                     75
                      A                      A                      A
 Frequencies --   1463.4417              1466.7645              1467.3562
 Red. masses --      1.2488                 1.6632                 1.2190
 Frc consts  --      1.5758                 2.1082                 1.5464
 IR Inten    --     17.4791                54.1508                60.9816

                     76                     77                     78
                      A                      A                      A
 Frequencies --   1491.2314              1499.5738              1511.9942
 Red. masses --      2.5877                 1.0979                 1.0471
 Frc consts  --      3.3904                 1.4546                 1.4104
 IR Inten    --     63.1487                39.9764                 4.0526

                     79                     80                     81
                      A                      A                      A
 Frequencies --   1512.9402              1522.2237              1528.7989
 Red. masses --      1.0932                 1.0671                 1.0602
 Frc consts  --      1.4743                 1.4569                 1.4600
 IR Inten    --      4.2663                17.1808                18.0298

                     82                     83                     84
                      A                      A                      A
 Frequencies --   1540.5026              1543.4601              1554.5113
 Red. masses --      1.1017                 1.0660                 1.1046
 Frc consts  --      1.5404                 1.4963                 1.5727
 IR Inten    --      6.7897                23.5150                17.5600

                     85                     86                     87
                      A                      A                      A
 Frequencies --   1563.2112              1572.3428              1658.2686
 Red. masses --      2.6416                 1.0821                 6.0870
 Frc consts  --      3.8033                 1.5762                 9.8620
 IR Inten    --     64.8677                17.3601                13.1834

                     88                     89                     90
                      A                      A                      A
 Frequencies --   1675.0773              1739.6624              3015.4995
 Red. masses --      6.2280                 1.0622                 1.0648
 Frc consts  --     10.2960                 1.8941                 5.7049
 IR Inten    --     70.1023                99.4104                90.8555

                     91                     92                     93
                      A                      A                      A
 Frequencies --   3072.0062              3075.2760              3078.8719
 Red. masses --      1.0852                 1.0979                 1.0363
 Frc consts  --      6.0339                 6.1177                 5.7878
 IR Inten    --     34.7583                48.0587                12.8021

                     94                     95                     96
                      A                      A                      A
 Frequencies --   3080.7628              3086.3650              3143.4689
 Red. masses --      1.0369                 1.0384                 1.0666
 Frc consts  --      5.7984                 5.8277                 6.2100
 IR Inten    --     18.0311                 1.5456                 3.0028

                     97                     98                     99
                      A                      A                      A
 Frequencies --   3149.7997              3152.3156              3154.9489
 Red. masses --      1.1015                 1.1024                 1.0983
 Frc consts  --      6.4385                 6.4546                 6.4408
 IR Inten    --     17.1223                11.0709                16.8202

                    100                    101                    102
                      A                      A                      A
 Frequencies --   3161.3583              3165.9353              3168.3384
 Red. masses --      1.0974                 1.1018                 1.1012
 Frc consts  --      6.4619                 6.5068                 6.5130
 IR Inten    --     36.7056                 1.3629                33.0277

                    103                    104                    105
                      A                      A                      A
 Frequencies --   3198.2035              3207.3836              3213.5561
 Red. masses --      1.0869                 1.1095                 1.0943
 Frc consts  --      6.5502                 6.7248                 6.6582
 IR Inten    --     21.1302                 8.8295                20.8766

                    106                    107                    108
                      A                      A                      A
 Frequencies --   3224.4932              3370.3450              3459.4761
 Red. masses --      1.0896                 1.0628                 1.0809
 Frc consts  --      6.6751                 7.1131                 7.6216
 IR Inten    --      2.0934               110.5565               113.0852

                    109                    110                    111
                      A                      A                      A
 Frequencies --   3728.6337              3745.3727              3758.3482
 Red. masses --      1.0660                 1.0662                 1.0670
 Frc consts  --      8.7322                 8.8124                 8.8796
 IR Inten    --    140.6222                33.7507               114.7398

 - Thermochemistry -
 -------------------
 Temperature   298.150 Kelvin.  Pressure   1.00000 Atm.
 Atom     1 has atomic number  6 and mass  12.00000

 Molecular mass:   240.15997 amu.
 Principal axes and moments of inertia in atomic units:
                           1         2         3
     Eigenvalues --  2257.898718608.030278799.01110
           X            0.99999  -0.00346   0.00241
           Y            0.00316   0.99331   0.11544
           Z           -0.00279  -0.11543   0.99331
 This molecule is an asymmetric top.
 Rotational symmetry number  1.
 Warning -- assumption of classical behavior for rotation
           may cause significant error
 Rotational temperatures (Kelvin)      0.03836     0.01006     0.00984
 Rotational constants (GHZ):           0.79930     0.20966     0.20511
 Zero-point vibrational energy     911526.2 (Joules/Mol)
                                  217.85998 (Kcal/Mol)
 Warning -- explicit consideration of  31 degrees of freedom as
           vibrations may cause significant error
 Vibrational temperatures:     63.59    73.07    80.15   101.11   159.49
          (Kelvin)            185.10   208.01   259.96   276.01   286.31
                              300.78   344.84   379.28   402.18   414.85
                              441.37   446.78   484.44   513.86   518.11
                              535.19   573.82   591.61   651.47   684.42
                              694.46   729.87   761.39   774.01   840.37
                              880.89   965.06  1049.68  1098.41  1136.81
                             1158.52  1199.99  1245.53  1285.41  1303.99
                             1353.87  1364.64  1376.13  1384.43  1389.23
                             1440.31  1448.42  1464.63  1496.57  1515.76
                             1566.28  1579.56  1616.32  1635.30  1707.27
                             1727.69  1746.77  1768.57  1771.93  1799.32
                             1818.86  1827.42  1852.67  1901.37  1917.52
                             1926.30  1940.66  1996.95  2004.55  2058.60
                             2078.77  2085.65  2105.57  2110.35  2111.20
                             2145.55  2157.55  2175.42  2176.78  2190.14
                             2199.60  2216.44  2220.69  2236.60  2249.11
                             2262.25  2385.88  2410.06  2502.99  4338.63
                             4419.93  4424.64  4429.81  4432.53  4440.59
                             4522.75  4531.86  4535.48  4539.27  4548.49
                             4555.07  4558.53  4601.50  4614.71  4623.59
                             4639.33  4849.17  4977.41  5364.67  5388.76
                             5407.42

 Zero-point correction=                           0.347182 (Hartree/Particle)
 Thermal correction to Energy=                    0.365484
 Thermal correction to Enthalpy=                  0.366428
 Thermal correction to Gibbs Free Energy=         0.301585
 Sum of electronic and zero-point Energies=           -788.563871
 Sum of electronic and thermal Energies=              -788.545569
 Sum of electronic and thermal Enthalpies=            -788.544625
 Sum of electronic and thermal Free Energies=         -788.609468

                     E (Thermal)             CV                S
                      KCal/Mol        Cal/Mol-Kelvin    Cal/Mol-Kelvin
 Total                  229.345             70.626            136.473
 Electronic               0.000              0.000              0.000
 Translational            0.889              2.981             42.330
 Rotational               0.889              2.981             33.502
 Vibrational            227.567             64.665             60.641
 Vibration     1          0.595              1.980              5.061
 Vibration     2          0.595              1.977              4.787
 Vibration     3          0.596              1.975              4.604
 Vibration     4          0.598              1.968              4.146
 Vibration     5          0.607              1.940              3.254
 Vibration     6          0.611              1.925              2.966
 Vibration     7          0.616              1.909              2.742
 Vibration     8          0.630              1.866              2.321
 Vibration     9          0.634              1.851              2.210
 Vibration    10          0.637              1.841              2.142
 Vibration    11          0.642              1.827              2.052
 Vibration    12          0.657              1.780              1.805
 Vibration    13          0.670              1.740              1.638
 Vibration    14          0.680              1.711              1.537
 Vibration    15          0.685              1.695              1.484
 Vibration    16          0.697              1.661              1.380
 Vibration    17          0.699              1.654              1.360
 Vibration    18          0.717              1.602              1.228
 Vibration    19          0.732              1.561              1.134
 Vibration    20          0.735              1.554              1.122
 Vibration    21          0.744              1.530              1.072
 Vibration    22          0.765              1.473              0.967
 Vibration    23          0.775              1.446              0.922
 Vibration    24          0.811              1.355              0.787
 Vibration    25          0.832              1.304              0.722
 Vibration    26          0.839              1.288              0.703
 Vibration    27          0.862              1.234              0.640
 Vibration    28          0.884              1.185              0.589
 Vibration    29          0.893              1.166              0.570
 Vibration    30          0.941              1.066              0.478
 Vibration    31          0.971              1.006              0.429

                           ! Non-Optimized Parameters !
 Normal termination of Gaussian 16 at Sun Jul 18 17:25:05 2021.

 ----------------------------------------------------------------------
 #p b3lyp/6-31G(d) scrf=(iefpcm,read,solvent=n-octanol) geom=allcheck g
 uess=read
 ----------------------------------------------------------------------

 Structure from the checkpoint file:  "SET_328_BBB301_conf1.geo_090_285_090.chk"
 ---------------------------------------------
 SET_328_BBB301_conf1.geo_090_285_090 geometry
 ---------------------------------------------
 Charge =  1 Multiplicity = 1

 SCF Done:  E(RB3LYP) =  -788.913247213     A.U. after    1 cycles
 Normal termination of Gaussian 16 at Sun Jul 18 17:26:06 2021.

 -----------------------------
 #p B3LYP/6-31G* geom=allcheck
 -----------------------------

 Structure from the checkpoint file:  "SET_328_BBB301_conf1.geo_090_285_090.chk"
 ---------------------------------------------
 SET_328_BBB301_conf1.geo_090_285_090 geometry
 ---------------------------------------------
 Charge =  1 Multiplicity = 1

 SCF Done:  E(RB3LYP) =  -788.813219472     A.U. after   13 cycles
 Normal termination of Gaussian 16 at Sun Jul 18 17:28:22 2021.
 Gaussian 16:  ES64L-G16RevA.03 25-Dec-2016

 --------------------------------------------------------
 #p mp2/aug-cc-pVDZ scf=tight maxdisk=180GB geom=allcheck
 --------------------------------------------------------

 Structure from the checkpoint file:  "SET_328_BBB301_conf1.geo_090_285_090.chk"
 ---------------------------------------------
 SET_328_BBB301_conf1.geo_090_285_090 geometry
 ---------------------------------------------
 Charge =  1 Multiplicity = 1

                         Standard orientation:
 ---------------------------------------------------------------------
 Center     Atomic      Atomic             Coordinates (Angstroms)
 Number     Number       Type             X           Y           Z
 ---------------------------------------------------------------------
      1          6           0       -4.599748   -0.668705    0.045112
      2          1           0       -5.580988   -0.490447   -0.400082
      3          1           0       -4.652389   -0.345863    1.086981
      4          1           0       -4.413677   -1.747379    0.017308
      5          6           0       -3.557258    0.114023   -0.757672
      6          6           0       -3.535805   -0.355164   -2.215871
      7          1           0       -3.342691   -1.429927   -2.296477
      8          1           0       -2.788871    0.182136   -2.806763
      9          1           0       -4.512506   -0.159682   -2.661881
     10          6           0       -3.798229    1.622025   -0.669460
     11          1           0       -3.834922    1.973255    0.365409
     12          1           0       -4.762112    1.850934   -1.128570
     13          1           0       -3.032899    2.188831   -1.206961
     14          7           0       -2.155227   -0.182003   -0.184422
     15          1           0       -1.450431    0.239615   -0.805748
     16          6           0       -1.876460    0.244426    1.228198
     17          1           0       -2.726864   -0.067191    1.833219
     18          1           0       -1.796488    1.329599    1.253180
     19          6           0       -0.591315   -0.443364    1.730905
     20          8           0       -0.708896   -1.844897    1.508600
     21          1           0       -1.231334   -2.231677    2.229514
     22          1           0       -0.529091   -0.226672    2.803084
     23          6           0        0.660605    0.075316    1.047714
     24          6           0        1.447220   -0.740703    0.228728
     25          1           0        1.163329   -1.777982    0.086942
     26          6           0        2.596181   -0.262979   -0.403866
     27          6           0        3.449170   -1.167681   -1.252084
     28          8           0        4.489916   -1.710522   -0.434395
     29          1           0        5.110511   -2.163070   -1.027123
     30          1           0        3.870309   -0.592095   -2.084417
     31          1           0        2.823710   -1.969360   -1.671548
     32          6           0        2.971857    1.074492   -0.195744
     33          8           0        4.095271    1.514395   -0.824722
     34          1           0        4.241714    2.454003   -0.619627
     35          6           0        2.197950    1.903395    0.622947
     36          1           0        2.494352    2.935559    0.783688
     37          6           0        1.056098    1.403069    1.238552
     38          1           0        0.477495    2.059277    1.881083
     39          1           0       -1.971474   -1.198554   -0.220879
 ---------------------------------------------------------------------

 SCF Done:  E(RHF) =  -784.030512896     A.U. after   16 cycles
 E2 =    -0.2634854250D+01 EUMP2 =    -0.78666536714590D+03

 The electronic state is 1-A.
 Alpha  occ. eigenvalues --  -20.72372 -20.69674 -20.64676 -15.84070 -11.45942
 Alpha  occ. eigenvalues --  -11.44875 -11.44470 -11.41487 -11.37876 -11.37777
 Alpha  occ. eigenvalues --  -11.37767 -11.37387 -11.36258 -11.35850 -11.35370
 Alpha  occ. eigenvalues --  -11.34790 -11.34279  -1.52476  -1.50645  -1.46350
 Alpha  occ. eigenvalues --   -1.43760  -1.27056  -1.24627  -1.18140  -1.14557
 Alpha  occ. eigenvalues --   -1.12141  -1.10087  -1.09372  -1.01849  -1.01216
 Alpha  occ. eigenvalues --   -0.95206  -0.94652  -0.91882  -0.89900  -0.85800
 Alpha  occ. eigenvalues --   -0.83437  -0.82740  -0.80322  -0.79726  -0.77600
 Alpha  occ. eigenvalues --   -0.77104  -0.75620  -0.75273  -0.74582  -0.72212
 Alpha  occ. eigenvalues --   -0.71203  -0.70142  -0.69050  -0.68868  -0.68614
 Alpha  occ. eigenvalues --   -0.68356  -0.67594  -0.67241  -0.66994  -0.65795
 Alpha  occ. eigenvalues --   -0.63754  -0.63610  -0.62601  -0.61680  -0.60763
 Alpha  occ. eigenvalues --   -0.58248  -0.57328  -0.52818  -0.44898  -0.41889
 Alpha virt. eigenvalues --   -0.07102  -0.06169  -0.05705  -0.04722  -0.03771
 Alpha virt. eigenvalues --   -0.03683  -0.03338  -0.03205  -0.02809  -0.02199
 Alpha virt. eigenvalues --   -0.01680  -0.01061  -0.00928  -0.00624  -0.00514

 Mulliken charges:
               1
     1  C    1.311403
     2  H    0.009026
     3  H   -0.025653
     4  H   -0.008443
     5  C   -3.291246
     6  C    1.284569
     7  H    0.019361
     8  H   -0.011711
     9  H    0.023285
    10  C    1.249255
    11  H   -0.018053
    12  H   -0.001393
    13  H    0.012171
    14  N   -0.612760
    15  H    0.190096
    16  C    0.721120
    17  H   -0.222399
    18  H   -0.357062
    19  C    0.864654
    20  O   -0.916841
    21  H    0.236697
    22  H   -0.151579
    23  C    0.790392
    24  C    0.534412
    25  H   -0.809438
    26  C    0.241565
    27  C    1.310657
    28  O   -0.673389
    29  H    0.132831
    30  H   -0.100099
    31  H   -0.170072
    32  C    1.000013
    33  O   -0.981393
    34  H    0.242061
    35  C    0.172546
    36  H   -0.632194
    37  C    0.145095
    38  H   -0.764145
    39  H    0.256662
 Sum of Mulliken charges =   1.00000

 Dipole moment (field-independent basis, Debye):
    X=            -10.3548    Y=              1.4843    Z=             -0.5713  Tot=             10.4762
 Quadrupole moment (field-independent basis, Debye-Ang):
   XX=            -54.7708   YY=            -85.6959   ZZ=            -87.1697
   XY=              7.2519   XZ=             -6.2904   YZ=              3.2645

 Normal termination of Gaussian 16 at Sun Jul 18 18:42:17 2021.
