 Gaussian 16, Revision A.03,

 ---------------------------------------------------------------
 #p b3lyp/6-31G(d) opt freq scrf=(iefpcm,read,solvent=n-octanol)
 ---------------------------------------------------------------

 ---------------------------------------------
 SET_328_BBB256_conf1.geo_180_180_090 geometry
 ---------------------------------------------
 Symbolic Z-matrix:
 Charge =  1 Multiplicity = 1

 SCF Done:  E(RB3LYP) =  -422.010330943     A.U. after   13 cycles
 SCF Done:  E(RB3LYP) =  -422.034527951     A.U. after   11 cycles
 SCF Done:  E(RB3LYP) =  -422.035235120     A.U. after   13 cycles
 SCF Done:  E(RB3LYP) =  -422.045779486     A.U. after   11 cycles
 SCF Done:  E(RB3LYP) =  -422.046434515     A.U. after   10 cycles
 SCF Done:  E(RB3LYP) =  -422.046614843     A.U. after   10 cycles
 SCF Done:  E(RB3LYP) =  -422.046691546     A.U. after    9 cycles
 SCF Done:  E(RB3LYP) =  -422.046700247     A.U. after   11 cycles
 SCF Done:  E(RB3LYP) =  -422.046105474     A.U. after   14 cycles
 SCF Done:  E(RB3LYP) =  -422.046892126     A.U. after   11 cycles
 SCF Done:  E(RB3LYP) =  -422.047025584     A.U. after    8 cycles
 SCF Done:  E(RB3LYP) =  -422.047025614     A.U. after    7 cycles
 SCF Done:  E(RB3LYP) =  -422.047031757     A.U. after    8 cycles
 SCF Done:  E(RB3LYP) =  -422.047032002     A.U. after    7 cycles
 SCF Done:  E(RB3LYP) =  -422.047025534     A.U. after    8 cycles
 SCF Done:  E(RB3LYP) =  -422.047025802     A.U. after    7 cycles
 Optimization completed on the basis of negligible forces.
    -- Stationary point found.
 Normal termination of Gaussian 16 at Sun Jul 18 15:06:07 2021.

 --------------------------------------------------------------------
 #P Geom=AllCheck Guess=TCheck SCRF=Check GenChk RB3LYP/6-31G(d) Freq
 --------------------------------------------------------------------

 Structure from the checkpoint file:  "SET_328_BBB256_conf1.geo_180_180_090.chk"
 ---------------------------------------------
 SET_328_BBB256_conf1.geo_180_180_090 geometry
 ---------------------------------------------
 Charge =  1 Multiplicity = 1

 SCF Done:  E(RB3LYP) =  -422.047025802     A.U. after    1 cycles

  Exact polarizability: 142.990   5.906 115.541  11.680  -5.959  65.805
 Approx polarizability: 162.842   5.423 154.323  17.235 -10.860  83.392

                      1                      2                      3
                      A                      A                      A
 Frequencies --     68.7114               100.2166               126.9602
 Red. masses --      3.5087                 3.6476                 1.3072
 Frc consts  --      0.0098                 0.0216                 0.0124
 IR Inten    --      3.9893                 4.7162                 2.1756

                      4                      5                      6
                      A                      A                      A
 Frequencies --    163.3696               214.3123               232.4454
 Red. masses --      1.6888                 2.1270                 2.8547
 Frc consts  --      0.0266                 0.0576                 0.0909
 IR Inten    --      0.6296                15.7142                 4.8993

                      7                      8                      9
                      A                      A                      A
 Frequencies --    306.0181               323.3978               415.5732
 Red. masses --      2.9260                 3.7590                 3.1137
 Frc consts  --      0.1614                 0.2316                 0.3168
 IR Inten    --     10.3753                 9.5651                 4.8847

                     10                     11                     12
                      A                      A                      A
 Frequencies --    425.9544               519.9632               617.2922
 Red. masses --      3.2138                 2.9296                 5.9950
 Frc consts  --      0.3435                 0.4667                 1.3459
 IR Inten    --      0.2746                 5.7943                 2.6987

                     13                     14                     15
                      A                      A                      A
 Frequencies --    647.8592               753.0175               774.5669
 Red. masses --      6.1767                 2.4777                 1.2177
 Frc consts  --      1.5275                 0.8278                 0.4304
 IR Inten    --      2.4227                 0.6980                27.3471

                     16                     17                     18
                      A                      A                      A
 Frequencies --    807.1220               847.1940               878.4537
 Red. masses --      1.4852                 4.5252                 1.1511
 Frc consts  --      0.5701                 1.9136                 0.5234
 IR Inten    --     29.4533                 1.7122                17.0809

                     19                     20                     21
                      A                      A                      A
 Frequencies --    915.8770               952.2945               984.4405
 Red. masses --      1.3100                 2.6977                 1.4074
 Frc consts  --      0.6474                 1.4414                 0.8036
 IR Inten    --      1.1896                33.2394                 0.3927

                     22                     23                     24
                      A                      A                      A
 Frequencies --   1013.7583              1019.3125              1026.3803
 Red. masses --      6.5239                 1.3040                 5.4546
 Frc consts  --      3.9503                 0.7983                 3.3856
 IR Inten    --      9.2975                 0.0517                25.8942

                     25                     26                     27
                      A                      A                      A
 Frequencies --   1048.7008              1072.0027              1079.8257
 Red. masses --      1.4423                 2.8184                 2.2545
 Frc consts  --      0.9346                 1.9083                 1.5488
 IR Inten    --      2.6911                 4.0500                 6.6636

                     28                     29                     30
                      A                      A                      A
 Frequencies --   1115.8160              1154.6019              1181.7852
 Red. masses --      1.4176                 1.2778                 1.6217
 Frc consts  --      1.0399                 1.0036                 1.3344
 IR Inten    --      1.2252                 3.0508                12.8187

                     31                     32                     33
                      A                      A                      A
 Frequencies --   1186.0118              1249.2442              1293.6458
 Red. masses --      1.1257                 2.1422                 1.9905
 Frc consts  --      0.9329                 1.9697                 1.9627
 IR Inten    --      5.3174                10.2879                 2.3745

                     34                     35                     36
                      A                      A                      A
 Frequencies --   1312.6276              1332.3164              1337.2013
 Red. masses --      2.5128                 1.5737                 1.3807
 Frc consts  --      2.5509                 1.6459                 1.4546
 IR Inten    --      1.1183                 3.2623                 9.4621

                     37                     38                     39
                      A                      A                      A
 Frequencies --   1367.0160              1422.2959              1461.5638
 Red. masses --      1.2353                 1.4226                 1.1631
 Frc consts  --      1.3601                 1.6956                 1.4639
 IR Inten    --      2.5819                 3.3778                 0.5650

                     40                     41                     42
                      A                      A                      A
 Frequencies --   1484.3880              1487.1735              1492.1332
 Red. masses --      1.8579                 1.1545                 1.1729
 Frc consts  --      2.4120                 1.5044                 1.5385
 IR Inten    --     35.1967                13.0515                13.4042

                     43                     44                     45
                      A                      A                      A
 Frequencies --   1511.3833              1520.5093              1522.7898
 Red. masses --      1.0728                 1.1223                 1.9616
 Frc consts  --      1.4438                 1.5288                 2.6800
 IR Inten    --     10.7154                12.1033                54.7838

                     46                     47                     48
                      A                      A                      A
 Frequencies --   1525.8578              1575.9462              1636.1900
 Red. masses --      1.0648                 1.1469                 5.8029
 Frc consts  --      1.4607                 1.6783                 9.1529
 IR Inten    --     12.0673               104.6225                22.7706

                     49                     50                     51
                      A                      A                      A
 Frequencies --   1653.3997              1680.2315              3064.6550
 Red. masses --      5.4538                 1.0675                 1.0646
 Frc consts  --      8.7842                 1.7756                 5.8910
 IR Inten    --     65.3493               107.8949                18.9001

                     52                     53                     54
                      A                      A                      A
 Frequencies --   3119.7716              3126.3639              3127.4322
 Red. masses --      1.0986                 1.0314                 1.0587
 Frc consts  --      6.2999                 5.9394                 6.1010
 IR Inten    --     15.9471                 5.4611                11.4791

                     55                     56                     57
                      A                      A                      A
 Frequencies --   3188.6810              3196.8391              3218.0094
 Red. masses --      1.1097                 1.0896                 1.0881
 Frc consts  --      6.6480                 6.5606                 6.6386
 IR Inten    --      7.7232                32.4516                 4.1652

                     58                     59                     60
                      A                      A                      A
 Frequencies --   3224.0373              3225.7812              3230.5322
 Red. masses --      1.1094                 1.1093                 1.0929
 Frc consts  --      6.7945                 6.8011                 6.7201
 IR Inten    --      4.7637                 4.4707                24.5789

                     61                     62                     63
                      A                      A                      A
 Frequencies --   3240.8118              3360.5407              3399.4870
 Red. masses --      1.0981                 1.0556                 1.0958
 Frc consts  --      6.7951                 7.0237                 7.4612
 IR Inten    --     15.0616               128.1099               171.6746

 - Thermochemistry -
 -------------------
 Temperature   298.150 Kelvin.  Pressure   1.00000 Atm.
 Atom     1 has atomic number  6 and mass  12.00000

 Molecular mass:   137.10787 amu.
 Principal axes and moments of inertia in atomic units:
                           1         2         3
     Eigenvalues --   454.462513145.597623451.64275
           X            0.99999  -0.00374  -0.00055
           Y            0.00374   0.99994   0.00990
           Z            0.00052  -0.00990   0.99995
 This molecule is an asymmetric top.
 Rotational symmetry number  1.
 Warning -- assumption of classical behavior for rotation
           may cause significant error
 Rotational temperatures (Kelvin)      0.19059     0.02753     0.02509
 Rotational constants (GHZ):           3.97116     0.57374     0.52286
 Zero-point vibrational energy     547662.9 (Joules/Mol)
                                  130.89458 (Kcal/Mol)
 Warning -- explicit consideration of  12 degrees of freedom as
           vibrations may cause significant error
 Vibrational temperatures:     98.86   144.19   182.67   235.05   308.35
          (Kelvin)            334.44   440.29   465.30   597.92   612.85
                              748.11   888.15   932.12  1083.42  1114.43
                             1161.27  1218.92  1263.90  1317.74  1370.14
                             1416.39  1458.57  1466.56  1476.73  1508.85
                             1542.37  1553.63  1605.41  1661.21  1700.33
                             1706.41  1797.38  1861.27  1888.58  1916.91
                             1923.93  1966.83  2046.37  2102.86  2135.70
                             2139.71  2146.85  2174.54  2187.67  2190.95
                             2195.37  2267.44  2354.11  2378.87  2417.48
                             4409.36  4488.66  4498.14  4499.68  4587.80
                             4599.54  4630.00  4638.67  4641.18  4648.02
                             4662.81  4835.07  4891.10

 Zero-point correction=                           0.208594 (Hartree/Particle)
 Thermal correction to Energy=                    0.218094
 Thermal correction to Enthalpy=                  0.219038
 Thermal correction to Gibbs Free Energy=         0.173511
 Sum of electronic and zero-point Energies=           -421.838432
 Sum of electronic and thermal Energies=              -421.828932
 Sum of electronic and thermal Enthalpies=            -421.827988
 Sum of electronic and thermal Free Energies=         -421.873514

                     E (Thermal)             CV                S
                      KCal/Mol        Cal/Mol-Kelvin    Cal/Mol-Kelvin
 Total                  136.856             35.721             95.819
 Electronic               0.000              0.000              0.000
 Translational            0.889              2.981             40.659
 Rotational               0.889              2.981             29.980
 Vibrational            135.079             29.759             25.181
 Vibration     1          0.598              1.969              4.190
 Vibration     2          0.604              1.949              3.450
 Vibration     3          0.611              1.926              2.992
 Vibration     4          0.623              1.887              2.510
 Vibration     5          0.644              1.819              2.007
 Vibration     6          0.653              1.791              1.860
 Vibration     7          0.696              1.662              1.384
 Vibration     8          0.708              1.629              1.293
 Vibration     9          0.779              1.436              0.907
 Vibration    10          0.788              1.414              0.872
 Vibration    11          0.875              1.206              0.610
 Vibration    12          0.977              0.995              0.421

 Optimization completed.
    -- Stationary point found.
 Normal termination of Gaussian 16 at Sun Jul 18 15:20:39 2021.

 ----------------------------------------------------------------------
 #p b3lyp/6-31G(d) scrf=(iefpcm,read,solvent=n-octanol) geom=allcheck g
 uess=read
 ----------------------------------------------------------------------

 Structure from the checkpoint file:  "SET_328_BBB256_conf1.geo_180_180_090.chk"
 ---------------------------------------------
 SET_328_BBB256_conf1.geo_180_180_090 geometry
 ---------------------------------------------
 Charge =  1 Multiplicity = 1

 SCF Done:  E(RB3LYP) =  -422.051757492     A.U. after    1 cycles
 Normal termination of Gaussian 16 at Sun Jul 18 15:21:16 2021.

 -----------------------------
 #p B3LYP/6-31G* geom=allcheck
 -----------------------------

 Structure from the checkpoint file:  "SET_328_BBB256_conf1.geo_180_180_090.chk"
 ---------------------------------------------
 SET_328_BBB256_conf1.geo_180_180_090 geometry
 ---------------------------------------------
 Charge =  1 Multiplicity = 1

 SCF Done:  E(RB3LYP) =  -421.950650557     A.U. after   14 cycles
 Normal termination of Gaussian 16 at Sun Jul 18 15:22:28 2021.
 Gaussian 16:  ES64L-G16RevA.03 25-Dec-2016

 --------------------------------------------------------
 #p mp2/aug-cc-pVDZ scf=tight maxdisk=180GB geom=allcheck
 --------------------------------------------------------

 Structure from the checkpoint file:  "SET_328_BBB256_conf1.geo_180_180_090.chk"
 ---------------------------------------------
 SET_328_BBB256_conf1.geo_180_180_090 geometry
 ---------------------------------------------
 Charge =  1 Multiplicity = 1

                         Standard orientation:
 ---------------------------------------------------------------------
 Center     Atomic      Atomic             Coordinates (Angstroms)
 Number     Number       Type             X           Y           Z
 ---------------------------------------------------------------------
      1          6           0        4.123421   -0.568587   -0.463308
      2          1           0        4.016861   -0.449215   -1.539538
      3          1           0        3.940650   -1.602652   -0.178203
      4          1           0        5.116013   -0.257848   -0.144856
      5          7           0        3.104864    0.296972    0.212691
      6          1           0        3.297094    1.288995   -0.006088
      7          6           0        1.692784   -0.059799   -0.180609
      8          1           0        1.533842   -1.104079    0.089456
      9          1           0        1.643078    0.035654   -1.265845
     10          6           0        0.661589    0.826971    0.507600
     11          1           0        0.771179    1.867875    0.192560
     12          1           0        0.818342    0.799112    1.591835
     13          6           0       -0.746149    0.353163    0.216330
     14          7           0       -0.974101   -0.960931    0.366922
     15          6           0       -2.217238   -1.407726    0.152627
     16          1           0       -2.368639   -2.476200    0.280219
     17          6           0       -3.281313   -0.583586   -0.210338
     18          1           0       -4.269170   -1.001334   -0.365226
     19          6           0       -3.036412    0.777961   -0.368991
     20          1           0       -3.833293    1.455917   -0.653957
     21          6           0       -1.744799    1.255289   -0.157012
     22          1           0       -1.509137    2.306904   -0.272352
     23          1           0        3.216533    0.222472    1.236918
 ---------------------------------------------------------------------

 SCF Done:  E(RHF) =  -419.253942541     A.U. after   15 cycles
 E2 =    -0.1456720784D+01 EUMP2 =    -0.42071066332557D+03

 The electronic state is 1-A.
 Alpha  occ. eigenvalues --  -15.87858 -15.68644 -11.46565 -11.45759 -11.40800
 Alpha  occ. eigenvalues --  -11.39725 -11.38877 -11.37007 -11.35702 -11.34974
 Alpha  occ. eigenvalues --   -1.49579  -1.37791  -1.22791  -1.19695  -1.15299
 Alpha  occ. eigenvalues --   -1.11912  -1.04744  -0.97208  -0.95704  -0.94239
 Alpha  occ. eigenvalues --   -0.85814  -0.83913  -0.80723  -0.79472  -0.76323
 Alpha  occ. eigenvalues --   -0.75600  -0.74518  -0.74017  -0.70355  -0.69493
 Alpha  occ. eigenvalues --   -0.67865  -0.67040  -0.63787  -0.62577  -0.53255
 Alpha  occ. eigenvalues --   -0.48960  -0.45150
 Alpha virt. eigenvalues --   -0.09669  -0.07110  -0.06665  -0.05616  -0.04126
 Alpha virt. eigenvalues --   -0.03416  -0.03380  -0.03153  -0.02033  -0.01816
 Alpha virt. eigenvalues --   -0.01402  -0.01174  -0.00721   0.00306   0.00702

 Mulliken charges:
               1
     1  C    0.759962
     2  H   -0.054858
     3  H   -0.055301
     4  H   -0.128852
     5  N   -0.725219
     6  H    0.209380
     7  C    1.076995
     8  H   -0.170145
     9  H   -0.225199
    10  C    0.388437
    11  H   -0.162797
    12  H    0.009202
    13  C    0.015696
    14  N   -0.677327
    15  C    0.452639
    16  H   -0.356596
    17  C    0.927036
    18  H   -0.397763
    19  C   -0.234762
    20  H   -0.388809
    21  C    1.089978
    22  H   -0.561046
    23  H    0.209348
 Sum of Mulliken charges =   1.00000

 Dipole moment (field-independent basis, Debye):
    X=             10.4152    Y=              1.9116    Z=             -0.2015  Tot=             10.5911
 Quadrupole moment (field-independent basis, Debye-Ang):
   XX=              3.4917   YY=            -51.4099   ZZ=            -58.7039
   XY=              2.1067   XZ=              2.9885   YZ=              0.3164

 Normal termination of Gaussian 16 at Sun Jul 18 15:32:23 2021.
