 Gaussian 16, Revision A.03,

 ---------------------------------------------------------------
 #p b3lyp/6-31G(d) opt freq scrf=(iefpcm,read,solvent=n-octanol)
 ---------------------------------------------------------------

 --------------------------------------------
 SET_328_BBB20_conf1.geo_090_075_180 geometry
 --------------------------------------------
 Symbolic Z-matrix:
 Charge =  1 Multiplicity = 1

 SCF Done:  E(RB3LYP) =  -769.794702381     A.U. after   13 cycles
 SCF Done:  E(RB3LYP) =  -769.823400749     A.U. after   11 cycles
 SCF Done:  E(RB3LYP) =  -769.816447964     A.U. after   12 cycles
 SCF Done:  E(RB3LYP) =  -769.836124127     A.U. after   11 cycles
 SCF Done:  E(RB3LYP) =  -769.836843386     A.U. after   11 cycles
 SCF Done:  E(RB3LYP) =  -769.837078340     A.U. after   10 cycles
 SCF Done:  E(RB3LYP) =  -769.836683649     A.U. after   10 cycles
 SCF Done:  E(RB3LYP) =  -769.837047245     A.U. after   10 cycles
 SCF Done:  E(RB3LYP) =  -769.837053150     A.U. after   10 cycles
 SCF Done:  E(RB3LYP) =  -769.837029166     A.U. after   10 cycles
 SCF Done:  E(RB3LYP) =  -769.840080460     A.U. after    9 cycles
 SCF Done:  E(RB3LYP) =  -769.840102147     A.U. after    8 cycles
 SCF Done:  E(RB3LYP) =  -769.840099570     A.U. after    8 cycles
 SCF Done:  E(RB3LYP) =  -769.840103887     A.U. after    7 cycles
 SCF Done:  E(RB3LYP) =  -769.840109737     A.U. after    7 cycles
 SCF Done:  E(RB3LYP) =  -769.840116087     A.U. after    7 cycles
 Optimization completed.
    -- Stationary point found.
 Normal termination of Gaussian 16 at Sun Jul 18 16:11:02 2021.

 --------------------------------------------------------------------
 #P Geom=AllCheck Guess=TCheck SCRF=Check GenChk RB3LYP/6-31G(d) Freq
 --------------------------------------------------------------------

 Structure from the checkpoint file:  "SET_328_BBB20_conf1.geo_090_075_180.chk"
 --------------------------------------------
 SET_328_BBB20_conf1.geo_090_075_180 geometry
 --------------------------------------------
 Charge =  1 Multiplicity = 1

 SCF Done:  E(RB3LYP) =  -769.840116087     A.U. after    1 cycles

  Exact polarizability: 257.378  37.025 213.523  20.040 -38.687 209.940
 Approx polarizability: 292.609  42.296 263.354  26.751 -56.158 276.127

                      1                      2                      3
                      A                      A                      A
 Frequencies --     38.7162                45.1989                81.4677
 Red. masses --      4.2271                 4.2733                 3.9600
 Frc consts  --      0.0037                 0.0051                 0.0155
 IR Inten    --     11.0556                 8.9493                17.6900

                      4                      5                      6
                      A                      A                      A
 Frequencies --     94.4681               134.8490               150.7023
 Red. masses --      3.6399                 3.6745                 2.8973
 Frc consts  --      0.0191                 0.0394                 0.0388
 IR Inten    --      0.7885                 7.4125                 3.5280

                      7                      8                      9
                      A                      A                      A
 Frequencies --    168.3873               173.4444               203.2307
 Red. masses --      2.6320                 2.1278                 2.6404
 Frc consts  --      0.0440                 0.0377                 0.0643
 IR Inten    --      6.3989                13.0910                 0.4721

                     10                     11                     12
                      A                      A                      A
 Frequencies --    248.7177               292.4208               303.8510
 Red. masses --      3.4958                 3.1424                 2.8628
 Frc consts  --      0.1274                 0.1583                 0.1557
 IR Inten    --      0.3903                 5.0424                 5.2073

                     13                     14                     15
                      A                      A                      A
 Frequencies --    311.7179               341.1592               347.3027
 Red. masses --      1.2316                 3.5654                 2.2397
 Frc consts  --      0.0705                 0.2445                 0.1592
 IR Inten    --      0.0556                 4.6193                 1.4036

                     16                     17                     18
                      A                      A                      A
 Frequencies --    361.8233               418.5942               440.0860
 Red. masses --      3.7774                 4.6918                 2.9200
 Frc consts  --      0.2914                 0.4844                 0.3332
 IR Inten    --      1.4029                15.7207                 4.3654

                     19                     20                     21
                      A                      A                      A
 Frequencies --    470.6675               480.0215               504.1114
 Red. masses --      3.4819                 3.3776                 3.4269
 Frc consts  --      0.4545                 0.4585                 0.5131
 IR Inten    --      2.6953                 2.1138                 2.7119

                     22                     23                     24
                      A                      A                      A
 Frequencies --    536.7584               553.6455               575.7415
 Red. masses --      3.3024                 3.6545                 4.8147
 Frc consts  --      0.5606                 0.6600                 0.9403
 IR Inten    --      0.8196                 3.3105                 2.2945

                     25                     26                     27
                      A                      A                      A
 Frequencies --    592.2854               610.4308               635.4735
 Red. masses --      3.6275                 3.0468                 5.1730
 Frc consts  --      0.7497                 0.6689                 1.2308
 IR Inten    --      1.1727                12.1312                 4.8140

                     28                     29                     30
                      A                      A                      A
 Frequencies --    696.8080               728.5919               758.4898
 Red. masses --      4.4504                 3.3147                 2.3806
 Frc consts  --      1.2731                 1.0367                 0.8069
 IR Inten    --      3.8081                 3.0651                12.5591

                     31                     32                     33
                      A                      A                      A
 Frequencies --    768.4949               777.0395               784.8865
 Red. masses --      1.4862                 1.7485                 2.4677
 Frc consts  --      0.5172                 0.6220                 0.8957
 IR Inten    --     27.4880                49.3896                 4.3714

                     34                     35                     36
                      A                      A                      A
 Frequencies --    788.4584               814.1221               864.4894
 Red. masses --      1.8170                 2.3347                 1.9504
 Frc consts  --      0.6655                 0.9117                 0.8588
 IR Inten    --     25.0979                 4.2924                 8.6788

                     37                     38                     39
                      A                      A                      A
 Frequencies --    871.4746               887.9264               899.1887
 Red. masses --      1.4447                 1.4553                 2.2584
 Frc consts  --      0.6465                 0.6760                 1.0758
 IR Inten    --      2.5655                 1.8858                 6.7854

                     40                     41                     42
                      A                      A                      A
 Frequencies --    931.6056               946.0644               949.6610
 Red. masses --      2.3609                 1.4644                 1.4187
 Frc consts  --      1.2073                 0.7722                 0.7538
 IR Inten    --     20.9360                 6.3401                 8.3087

                     43                     44                     45
                      A                      A                      A
 Frequencies --    958.4232               982.3854               985.6862
 Red. masses --      1.4799                 1.2812                 2.1218
 Frc consts  --      0.8010                 0.7285                 1.2146
 IR Inten    --     12.5539                 0.3573                 0.6069

                     46                     47                     48
                      A                      A                      A
 Frequencies --    986.6716               994.3362              1029.6663
 Red. masses --      1.2630                 2.8590                 1.5437
 Frc consts  --      0.7245                 1.6655                 0.9643
 IR Inten    --      0.4133                19.9477                16.8559

                     49                     50                     51
                      A                      A                      A
 Frequencies --   1040.2818              1050.3440              1078.0990
 Red. masses --      2.3749                 2.4039                 2.1389
 Frc consts  --      1.5143                 1.5625                 1.4647
 IR Inten    --      6.7186                 2.2238                 2.8495

                     52                     53                     54
                      A                      A                      A
 Frequencies --   1091.6489              1097.8583              1136.8991
 Red. masses --      2.3981                 2.6362                 2.1395
 Frc consts  --      1.6838                 1.8720                 1.6293
 IR Inten    --      7.9325                13.1985                46.1180

                     55                     56                     57
                      A                      A                      A
 Frequencies --   1153.8661              1164.6672              1176.1063
 Red. masses --      1.9223                 1.7221                 1.6422
 Frc consts  --      1.5080                 1.3763                 1.3384
 IR Inten    --      3.6422                40.4597                35.4280

                     58                     59                     60
                      A                      A                      A
 Frequencies --   1192.6164              1195.4531              1205.4879
 Red. masses --      1.1729                 1.2015                 1.1617
 Frc consts  --      0.9829                 1.0117                 0.9946
 IR Inten    --      1.4970                 1.8423                 5.7087

                     61                     62                     63
                      A                      A                      A
 Frequencies --   1214.5491              1236.0372              1249.4225
 Red. masses --      1.6560                 2.7169                 1.7944
 Frc consts  --      1.4393                 2.4456                 1.6504
 IR Inten    --      1.4806                10.3416                65.6647

                     64                     65                     66
                      A                      A                      A
 Frequencies --   1262.5901              1278.1870              1313.5987
 Red. masses --      1.9537                 1.8999                 1.4127
 Frc consts  --      1.8350                 1.8288                 1.4363
 IR Inten    --     68.4216               146.4786                12.1317

                     67                     68                     69
                      A                      A                      A
 Frequencies --   1329.4104              1341.0523              1346.4421
 Red. masses --      1.6579                 2.5842                 2.6815
 Frc consts  --      1.7263                 2.7382                 2.8642
 IR Inten    --     13.7365                61.7179                 6.2114

                     70                     71                     72
                      A                      A                      A
 Frequencies --   1356.2385              1362.7373              1369.7874
 Red. masses --      1.2154                 1.2653                 3.1595
 Frc consts  --      1.3172                 1.3845                 3.4929
 IR Inten    --     30.2436                14.4037                16.3783

                     73                     74                     75
                      A                      A                      A
 Frequencies --   1381.3536              1397.7032              1401.7202
 Red. masses --      1.4871                 1.4658                 1.3154
 Frc consts  --      1.6719                 1.6871                 1.5228
 IR Inten    --      7.0800                19.2393                 8.7678

                     76                     77                     78
                      A                      A                      A
 Frequencies --   1433.3956              1449.2673              1489.6550
 Red. masses --      1.4138                 1.3087                 1.6618
 Frc consts  --      1.7115                 1.6196                 2.1727
 IR Inten    --     36.2911                 4.8904                24.7492

                     79                     80                     81
                      A                      A                      A
 Frequencies --   1495.0471              1501.4374              1501.8752
 Red. masses --      1.4581                 1.2701                 1.1747
 Frc consts  --      1.9202                 1.6870                 1.5612
 IR Inten    --     34.6882                 2.6026                 8.8799

                     82                     83                     84
                      A                      A                      A
 Frequencies --   1506.5684              1531.6290              1533.1807
 Red. masses --      1.6736                 1.3584                 1.3599
 Frc consts  --      2.2381                 1.8775                 1.8834
 IR Inten    --     34.3333                91.5205                98.1232

                     85                     86                     87
                      A                      A                      A
 Frequencies --   1547.7339              1552.3335              1594.0865
 Red. masses --      2.1541                 1.3423                 1.1412
 Frc consts  --      3.0403                 1.9058                 1.7086
 IR Inten    --     21.2816                17.2570               197.0412

                     88                     89                     90
                      A                      A                      A
 Frequencies --   1634.5413              1644.4567              1653.8986
 Red. masses --      5.9193                 6.4514                 1.0420
 Frc consts  --      9.3178                10.2790                 1.6793
 IR Inten    --     19.0805                 9.5451                75.6387

                     91                     92                     93
                      A                      A                      A
 Frequencies --   1657.2898              1663.4596              1690.8379
 Red. masses --      5.7294                 5.6940                 1.0358
 Frc consts  --      9.2716                 9.2831                 1.7447
 IR Inten    --     29.7387                11.2772                84.1547

                     94                     95                     96
                      A                      A                      A
 Frequencies --   3017.9523              3041.7603              3054.8849
 Red. masses --      1.0723                 1.0645                 1.0618
 Frc consts  --      5.7540                 5.8029                 5.8381
 IR Inten    --     72.7779                34.6392                35.7299

                     97                     98                     99
                      A                      A                      A
 Frequencies --   3080.0183              3082.9581              3102.7359
 Red. masses --      1.0966                 1.0627                 1.1031
 Frc consts  --      6.1294                 5.9510                 6.2567
 IR Inten    --     61.8865                19.8766                45.9571

                    100                    101                    102
                      A                      A                      A
 Frequencies --   3121.8069              3126.2289              3133.8801
 Red. masses --      1.0936                 1.0619                 1.0963
 Frc consts  --      6.2795                 6.1147                 6.3437
 IR Inten    --     11.9556                13.4368                41.6715

                    103                    104                    105
                      A                      A                      A
 Frequencies --   3186.7123              3194.7123              3195.5047
 Red. masses --      1.1088                 1.0860                 1.0876
 Frc consts  --      6.6340                 6.5303                 6.5433
 IR Inten    --     14.3155                 6.2971                14.4251

                    106                    107                    108
                      A                      A                      A
 Frequencies --   3201.5352              3210.2382              3222.3995
 Red. masses --      1.0898                 1.0879                 1.0956
 Frc consts  --      6.5811                 6.6059                 6.7031
 IR Inten    --     28.0408                10.7557                50.0097

                    109                    110                    111
                      A                      A                      A
 Frequencies --   3223.0762              3233.7674              3241.6024
 Red. masses --      1.0926                 1.0955                 1.0913
 Frc consts  --      6.6875                 6.7499                 6.7566
 IR Inten    --     37.7650                24.2905                17.3923

                    112                    113                    114
                      A                      A                      A
 Frequencies --   3394.8293              3464.2692              3486.3702
 Red. masses --      1.0371                 1.0911                 1.0936
 Frc consts  --      7.0420                 7.7152                 7.8315
 IR Inten    --    102.6092               183.8506               189.1361

 - Thermochemistry -
 -------------------
 Temperature   298.150 Kelvin.  Pressure   1.00000 Atm.
 Atom     1 has atomic number  7 and mass  14.00307

 Molecular mass:   253.17047 amu.
 Principal axes and moments of inertia in atomic units:
                           1         2         3
     Eigenvalues --  3852.032825736.228117252.10695
           X            0.99912  -0.04183  -0.00279
           Y            0.04179   0.99904  -0.01322
           Z            0.00334   0.01309   0.99991
 This molecule is an asymmetric top.
 Rotational symmetry number  1.
 Warning -- assumption of classical behavior for rotation
           may cause significant error
 Rotational temperatures (Kelvin)      0.02249     0.01510     0.01194
 Rotational constants (GHZ):           0.46852     0.31462     0.24886
 Zero-point vibrational energy     933337.5 (Joules/Mol)
                                  223.07301 (Kcal/Mol)
 Warning -- explicit consideration of  26 degrees of freedom as
           vibrations may cause significant error
 Vibrational temperatures:     55.70    65.03   117.21   135.92   194.02
          (Kelvin)            216.83   242.27   249.55   292.40   357.85
                              420.73   437.17   448.49   490.85   499.69
                              520.58   602.26   633.19   677.19   690.64
                              725.30   772.28   796.57   828.36   852.17
                              878.27   914.30  1002.55  1048.28  1091.30
                             1105.69  1117.99  1129.28  1134.42  1171.34
                             1243.81  1253.86  1277.53  1293.73  1340.37
                             1361.18  1366.35  1378.96  1413.43  1418.18
                             1419.60  1430.63  1481.46  1496.73  1511.21
                             1551.14  1570.64  1579.57  1635.74  1660.16
                             1675.70  1692.15  1715.91  1719.99  1734.43
                             1747.47  1778.38  1797.64  1816.59  1839.03
                             1889.98  1912.73  1929.48  1937.23  1951.32
                             1960.68  1970.82  1987.46  2010.98  2016.76
                             2062.34  2085.17  2143.28  2151.04  2160.23
                             2160.86  2167.62  2203.67  2205.91  2226.84
                             2233.46  2293.53  2351.74  2366.01  2379.59
                             2384.47  2393.35  2432.74  4342.16  4376.41
                             4395.30  4431.46  4435.69  4464.14  4491.58
                             4497.95  4508.95  4584.97  4596.48  4597.62
                             4606.30  4618.82  4636.31  4637.29  4652.67
                             4663.94  4884.40  4984.31  5016.11

 Zero-point correction=                           0.355489 (Hartree/Particle)
 Thermal correction to Energy=                    0.371559
 Thermal correction to Enthalpy=                  0.372503
 Thermal correction to Gibbs Free Energy=         0.312146
 Sum of electronic and zero-point Energies=           -769.484627
 Sum of electronic and thermal Energies=              -769.468557
 Sum of electronic and thermal Enthalpies=            -769.467613
 Sum of electronic and thermal Free Energies=         -769.527970

                     E (Thermal)             CV                S
                      KCal/Mol        Cal/Mol-Kelvin    Cal/Mol-Kelvin
 Total                  233.157             65.598            127.032
 Electronic               0.000              0.000              0.000
 Translational            0.889              2.981             42.487
 Rotational               0.889              2.981             33.438
 Vibrational            231.379             59.637             51.107
 Vibration     1          0.594              1.981              5.324
 Vibration     2          0.595              1.979              5.017
 Vibration     3          0.600              1.962              3.855
 Vibration     4          0.603              1.953              3.565
 Vibration     5          0.613              1.919              2.876
 Vibration     6          0.618              1.902              2.663
 Vibration     7          0.625              1.881              2.453
 Vibration     8          0.627              1.875              2.398
 Vibration     9          0.639              1.835              2.104
 Vibration    10          0.662              1.765              1.740
 Vibration    11          0.688              1.688              1.460
 Vibration    12          0.695              1.666              1.396
 Vibration    13          0.700              1.651              1.353
 Vibration    14          0.721              1.593              1.207
 Vibration    15          0.725              1.581              1.178
 Vibration    16          0.736              1.551              1.114
 Vibration    17          0.781              1.430              0.897
 Vibration    18          0.800              1.383              0.826
 Vibration    19          0.828              1.315              0.736
 Vibration    20          0.836              1.294              0.710
 Vibration    21          0.859              1.241              0.648
 Vibration    22          0.892              1.169              0.572
 Vibration    23          0.909              1.132              0.537
 Vibration    24          0.932              1.084              0.493
 Vibration    25          0.950              1.048              0.463
 Vibration    26          0.969              1.010              0.432

                           ! Non-Optimized Parameters !
 Normal termination of Gaussian 16 at Sun Jul 18 17:08:34 2021.

 ----------------------------------------------------------------------
 #p b3lyp/6-31G(d) scrf=(iefpcm,read,solvent=n-octanol) geom=allcheck g
 uess=read
 ----------------------------------------------------------------------

 Structure from the checkpoint file:  "SET_328_BBB20_conf1.geo_090_075_180.chk"
 --------------------------------------------
 SET_328_BBB20_conf1.geo_090_075_180 geometry
 --------------------------------------------
 Charge =  1 Multiplicity = 1

 SCF Done:  E(RB3LYP) =  -769.842915419     A.U. after    3 cycles
 Normal termination of Gaussian 16 at Sun Jul 18 17:10:23 2021.

 -----------------------------
 #p B3LYP/6-31G* geom=allcheck
 -----------------------------

 Structure from the checkpoint file:  "SET_328_BBB20_conf1.geo_090_075_180.chk"
 --------------------------------------------
 SET_328_BBB20_conf1.geo_090_075_180 geometry
 --------------------------------------------
 Charge =  1 Multiplicity = 1

 SCF Done:  E(RB3LYP) =  -769.719103939     A.U. after   14 cycles

 The electronic state is 1-A.
 Alpha  occ. eigenvalues --  -14.66022 -14.45362 -10.42096 -10.35010 -10.34622
 Alpha  occ. eigenvalues --  -10.31751 -10.31404 -10.28564 -10.28314 -10.28286
 Alpha  occ. eigenvalues --  -10.28008 -10.27907 -10.27764 -10.27649 -10.27543
 Alpha  occ. eigenvalues --  -10.26783 -10.26442 -10.26251 -10.25947  -1.20135
 Alpha  occ. eigenvalues --   -1.05396  -0.95779  -0.94444  -0.92632  -0.88799
 Alpha  occ. eigenvalues --   -0.85772  -0.84201  -0.83990  -0.81041  -0.79884
 Alpha  occ. eigenvalues --   -0.78446  -0.77719  -0.74448  -0.73486  -0.69611
 Alpha  occ. eigenvalues --   -0.68387  -0.68127  -0.66853  -0.65781  -0.62996
 Alpha  occ. eigenvalues --   -0.60747  -0.60150  -0.57880  -0.56981  -0.55885
 Alpha  occ. eigenvalues --   -0.55363  -0.54552  -0.53620  -0.52670  -0.52241
 Alpha  occ. eigenvalues --   -0.52121  -0.50427  -0.50217  -0.48696  -0.48405
 Alpha  occ. eigenvalues --   -0.47393  -0.46578  -0.44950  -0.44362  -0.43273
 Alpha  occ. eigenvalues --   -0.42750  -0.42363  -0.41440  -0.38142  -0.33914
 Alpha  occ. eigenvalues --   -0.32947  -0.31968  -0.29250
 Alpha virt. eigenvalues --   -0.16185  -0.09813  -0.09634  -0.09520  -0.09275
 Alpha virt. eigenvalues --   -0.07958  -0.07501  -0.05887  -0.03130  -0.02284
 Alpha virt. eigenvalues --   -0.00207   0.00942   0.01753   0.02132   0.02457

 Mulliken charges:
               1
     1  N   -0.727238
     2  H    0.431169
     3  H    0.427211
     4  C   -0.209480
     5  H    0.249283
     6  H    0.225603
     7  C   -0.305452
     8  H    0.165645
     9  H    0.185500
    10  C   -0.146190
    11  H    0.174792
    12  H    0.174129
    13  N   -0.595136
    14  C    0.201010
    15  C   -0.167940
    16  H    0.136298
    17  C   -0.148818
    18  H    0.151009
    19  C   -0.119907
    20  H    0.152029
    21  C   -0.212949
    22  H    0.143614
    23  C    0.149873
    24  C   -0.356475
    25  H    0.154855
    26  H    0.125162
    27  C   -0.343652
    28  H    0.176628
    29  H    0.162240
    30  C    0.159291
    31  C   -0.198323
    32  H    0.139235
    33  C   -0.118650
    34  H    0.148304
    35  C   -0.144365
    36  H    0.145843
    37  C   -0.180890
    38  H    0.129464
    39  C    0.234457
    40  H    0.432819
 Sum of Mulliken charges =   1.00000

 Dipole moment (field-independent basis, Debye):
    X=            -13.0688    Y=             10.9533    Z=              4.7034  Tot=             17.6886
 Quadrupole moment (field-independent basis, Debye-Ang):
   XX=            -53.0247   YY=            -67.4713   ZZ=            -94.0609
   XY=            -35.4529   XZ=            -14.8290   YZ=              9.2477

 Normal termination of Gaussian 16 at Sun Jul 18 17:13:53 2021.
 Gaussian 16:  ES64L-G16RevA.03 25-Dec-2016

 --------------------------------------------------------
 #p mp2/aug-cc-pVDZ scf=tight maxdisk=180GB geom=allcheck
 --------------------------------------------------------

 Structure from the checkpoint file:  "SET_328_BBB20_conf1.geo_090_075_180.chk"
 --------------------------------------------
 SET_328_BBB20_conf1.geo_090_075_180 geometry
 --------------------------------------------
 Charge =  1 Multiplicity = 1

                         Standard orientation:
 ---------------------------------------------------------------------
 Center     Atomic      Atomic             Coordinates (Angstroms)
 Number     Number       Type             X           Y           Z
 ---------------------------------------------------------------------
      1          7           0       -3.353256    2.797688    1.299323
      2          1           0       -4.068994    2.078564    1.128950
      3          1           0       -3.648815    3.640898    0.788841
      4          6           0       -1.978288    2.338359    0.889515
      5          1           0       -1.747503    1.457945    1.489165
      6          1           0       -1.290704    3.138207    1.169007
      7          6           0       -1.912829    2.038971   -0.604057
      8          1           0       -2.230615    2.917872   -1.172302
      9          1           0       -2.599414    1.224676   -0.855043
     10          6           0       -0.489895    1.687210   -1.055460
     11          1           0        0.171074    2.523996   -0.821296
     12          1           0       -0.483522    1.581169   -2.150022
     13          7           0        0.047594    0.510129   -0.367847
     14          6           0       -0.712387   -0.697528   -0.492423
     15          6           0       -1.374981   -1.022946   -1.681624
     16          1           0       -1.289677   -0.366199   -2.539315
     17          6           0       -2.132273   -2.189650   -1.770676
     18          1           0       -2.637346   -2.431728   -2.699373
     19          6           0       -2.227346   -3.044413   -0.673402
     20          1           0       -2.812479   -3.955351   -0.737423
     21          6           0       -1.568580   -2.717429    0.512154
     22          1           0       -1.645349   -3.374445    1.373978
     23          6           0       -0.819097   -1.543643    0.623663
     24          6           0       -0.093525   -1.171866    1.886693
     25          1           0       -0.416910   -1.821044    2.707314
     26          1           0       -0.339851   -0.140533    2.165634
     27          6           0        1.427374   -1.302109    1.725297
     28          1           0        1.650855   -2.346656    1.473936
     29          1           0        1.905666   -1.124367    2.695058
     30          6           0        2.109589   -0.404371    0.703447
     31          6           0        3.510266   -0.398997    0.748564
     32          1           0        3.989648   -1.015402    1.502746
     33          6           0        4.293432    0.365822   -0.109475
     34          1           0        5.374953    0.345131   -0.030607
     35          6           0        3.660569    1.154349   -1.065959
     36          1           0        4.239069    1.754500   -1.761684
     37          6           0        2.272099    1.163519   -1.143334
     38          1           0        1.798598    1.756403   -1.914977
     39          6           0        1.471875    0.407340   -0.265203
     40          1           0       -3.395058    3.025938    2.300771
 ---------------------------------------------------------------------

 SCF Done:  E(RHF) =  -764.751008078     A.U. after   16 cycles
