 Gaussian 16, Revision A.03,

 ---------------------------------------------------------------
 #p b3lyp/6-31G(d) opt freq scrf=(iefpcm,read,solvent=n-octanol)
 ---------------------------------------------------------------

 ---------------------------------------------
 SET_328_BBB272_conf1.geo_195_315_180 geometry
 ---------------------------------------------
 Symbolic Z-matrix:
 Charge = -1 Multiplicity = 1

 SCF Done:  E(RB3LYP) =  -648.197426689     A.U. after   14 cycles
 SCF Done:  E(RB3LYP) =  -648.223566672     A.U. after   12 cycles
 SCF Done:  E(RB3LYP) =  -648.219330809     A.U. after   13 cycles
 SCF Done:  E(RB3LYP) =  -648.228690326     A.U. after   12 cycles
 SCF Done:  E(RB3LYP) =  -648.230751584     A.U. after   11 cycles
 SCF Done:  E(RB3LYP) =  -648.230651038     A.U. after   11 cycles
 SCF Done:  E(RB3LYP) =  -648.230999895     A.U. after   11 cycles
 SCF Done:  E(RB3LYP) =  -648.231408700     A.U. after   12 cycles
 SCF Done:  E(RB3LYP) =  -648.231841562     A.U. after   14 cycles
 SCF Done:  E(RB3LYP) =  -648.232375895     A.U. after   12 cycles
 SCF Done:  E(RB3LYP) =  -648.235301046     A.U. after    5 cycles
 SCF Done:  E(RB3LYP) =  -648.235271974     A.U. after   10 cycles
 SCF Done:  E(RB3LYP) =  -648.235300502     A.U. after   10 cycles
 SCF Done:  E(RB3LYP) =  -648.235250960     A.U. after   10 cycles
 SCF Done:  E(RB3LYP) =  -648.235275070     A.U. after    9 cycles
 SCF Done:  E(RB3LYP) =  -648.235273626     A.U. after    7 cycles
 Optimization completed.
    -- Stationary point found.
 Normal termination of Gaussian 16 at Sun Jul 18 16:05:20 2021.

 --------------------------------------------------------------------
 #P Geom=AllCheck Guess=TCheck SCRF=Check GenChk RB3LYP/6-31G(d) Freq
 --------------------------------------------------------------------

 Structure from the checkpoint file:  "SET_328_BBB272_conf1.geo_195_315_180.chk"
 ---------------------------------------------
 SET_328_BBB272_conf1.geo_195_315_180 geometry
 ---------------------------------------------
 Charge = -1 Multiplicity = 1

 SCF Done:  E(RB3LYP) =  -648.235273626     A.U. after    1 cycles

  Exact polarizability: 163.353   3.716 139.255 -11.014   8.008  67.146
 Approx polarizability: 197.289  -1.021 180.450 -19.039  14.778  96.341

                      1                      2                      3
                      A                      A                      A
 Frequencies --     42.7417                77.9997               102.3627
 Red. masses --     12.4409                 4.5182                 3.7693
 Frc consts  --      0.0134                 0.0162                 0.0233
 IR Inten    --      0.9714                14.0972                 4.2668

                      4                      5                      6
                      A                      A                      A
 Frequencies --    112.0346               153.8784               188.8654
 Red. masses --      4.6867                 5.0621                 1.2488
 Frc consts  --      0.0347                 0.0706                 0.0262
 IR Inten    --      2.5783                 2.0775                 3.8967

                      7                      8                      9
                      A                      A                      A
 Frequencies --    241.0044               277.1669               304.7887
 Red. masses --      8.2844                 5.7839                 4.2464
 Frc consts  --      0.2835                 0.2618                 0.2324
 IR Inten    --      4.0842                 4.8516                 4.8292

                     10                     11                     12
                      A                      A                      A
 Frequencies --    363.9540               407.9290               452.9950
 Red. masses --      7.2947                 7.2348                 3.8886
 Frc consts  --      0.5693                 0.7093                 0.4701
 IR Inten    --      2.6088                12.9920                 0.8645

                     13                     14                     15
                      A                      A                      A
 Frequencies --    521.0614               538.0325               551.0236
 Red. masses --      4.6432                 3.7092                 4.6916
 Frc consts  --      0.7428                 0.6326                 0.8393
 IR Inten    --      3.3967                10.5779                12.3146

                     16                     17                     18
                      A                      A                      A
 Frequencies --    574.9479               659.3163               680.7087
 Red. masses --      4.5555                 6.0705                 6.2416
 Frc consts  --      0.8872                 1.5548                 1.7040
 IR Inten    --     16.6692                 8.7846                23.8271

                     19                     20                     21
                      A                      A                      A
 Frequencies --    706.6344               767.2379               807.0837
 Red. masses --      3.7240                 1.9619                 3.1572
 Frc consts  --      1.0956                 0.6804                 1.2117
 IR Inten    --     32.6813                40.8704                38.4107

                     22                     23                     24
                      A                      A                      A
 Frequencies --    811.2640               849.7326               894.9923
 Red. masses --      5.2706                 4.6737                 1.6098
 Frc consts  --      2.0438                 1.9883                 0.7597
 IR Inten    --     27.5339                35.9319                 4.5870

                     25                     26                     27
                      A                      A                      A
 Frequencies --    939.2324               967.1994              1000.3855
 Red. masses --      5.1911                 1.3549                 1.2774
 Frc consts  --      2.6981                 0.7468                 0.7532
 IR Inten    --     24.4140                 5.3465                 2.2853

                     28                     29                     30
                      A                      A                      A
 Frequencies --   1029.5502              1061.6595              1064.4506
 Red. masses --      1.7871                 1.7475                 2.0563
 Frc consts  --      1.1161                 1.1605                 1.3727
 IR Inten    --     62.7522                28.6816                15.7788

                     31                     32                     33
                      A                      A                      A
 Frequencies --   1106.2318              1164.2970              1177.7899
 Red. masses --      2.8236                 1.8618                 1.1429
 Frc consts  --      2.0359                 1.4870                 0.9341
 IR Inten    --     51.8218                 5.3432                11.6123

                     34                     35                     36
                      A                      A                      A
 Frequencies --   1223.3188              1253.1413              1283.8998
 Red. masses --      3.7656                 3.2656                 1.6356
 Frc consts  --      3.3202                 3.0214                 1.5885
 IR Inten    --    347.6984               398.3462                 2.5220

                     37                     38                     39
                      A                      A                      A
 Frequencies --   1352.0289              1384.8243              1409.3286
 Red. masses --      9.6304                11.7063                 1.3627
 Frc consts  --     10.3721                13.2270                 1.5947
 IR Inten    --      5.6158               638.5643                98.8085

                     40                     41                     42
                      A                      A                      A
 Frequencies --   1485.8030              1497.6373              1511.5653
 Red. masses --      2.2949                 1.0647                 1.1034
 Frc consts  --      2.9849                 1.4069                 1.4854
 IR Inten    --     12.6879                 5.3873                23.8464

                     43                     44                     45
                      A                      A                      A
 Frequencies --   1513.3771              1626.9166              1657.4948
 Red. masses --      2.4141                 6.3452                 6.5575
 Frc consts  --      3.2575                 9.8952                10.6144
 IR Inten    --     24.9917                25.1099                43.9429

                     46                     47                     48
                      A                      A                      A
 Frequencies --   1689.7809              1833.1580              3096.8682
 Red. masses --     11.6399                11.4858                 1.0352
 Frc consts  --     19.5821                22.7411                 5.8497
 IR Inten    --    707.0319               326.6967                 4.9194

                     49                     50                     51
                      A                      A                      A
 Frequencies --   3169.6160              3198.8562              3199.1328
 Red. masses --      1.1014                 1.0865                 1.1045
 Frc consts  --      6.5194                 6.5504                 6.6603
 IR Inten    --      7.2959                 9.1730                17.5114

                     52                     53                     54
                      A                      A                      A
 Frequencies --   3209.6378              3225.7368              3230.4698
 Red. masses --      1.0898                 1.0918                 1.0959
 Frc consts  --      6.6144                 6.6932                 6.7380
 IR Inten    --     22.8994                17.6492                35.1329

 - Thermochemistry -
 -------------------
 Temperature   298.150 Kelvin.  Pressure   1.00000 Atm.
 Atom     1 has atomic number  6 and mass  12.00000

 Molecular mass:   179.03443 amu.
 Principal axes and moments of inertia in atomic units:
                           1         2         3
     Eigenvalues --  1515.379182403.480813530.31533
           X            0.99992  -0.00554  -0.01114
           Y            0.00564   0.99994   0.00905
           Z            0.01109  -0.00911   0.99990
 This molecule is an asymmetric top.
 Rotational symmetry number  1.
 Warning -- assumption of classical behavior for rotation
           may cause significant error
 Rotational temperatures (Kelvin)      0.05716     0.03604     0.02453
 Rotational constants (GHZ):           1.19095     0.75089     0.51121
 Zero-point vibrational energy     380718.4 (Joules/Mol)
                                   90.99388 (Kcal/Mol)
 Warning -- explicit consideration of  16 degrees of freedom as
           vibrations may cause significant error
 Vibrational temperatures:     61.50   112.22   147.28   161.19   221.40
          (Kelvin)            271.74   346.75   398.78   438.52   523.65
                              586.92   651.76   749.69   774.11   792.80
                              827.22   948.61   979.39  1016.69  1103.88
                             1161.21  1167.23  1222.58  1287.69  1351.35
                             1391.58  1439.33  1481.29  1527.49  1531.51
                             1591.62  1675.16  1694.58  1760.08  1802.99
                             1847.25  1945.27  1992.45  2027.71  2137.74
                             2154.77  2174.81  2177.41  2340.77  2384.77
                             2431.22  2637.51  4455.70  4560.37  4602.44
                             4602.84  4617.95  4641.12  4647.93

 Zero-point correction=                           0.145008 (Hartree/Particle)
 Thermal correction to Energy=                    0.156259
 Thermal correction to Enthalpy=                  0.157203
 Thermal correction to Gibbs Free Energy=         0.107030
 Sum of electronic and zero-point Energies=           -648.090266
 Sum of electronic and thermal Energies=              -648.079015
 Sum of electronic and thermal Enthalpies=            -648.078071
 Sum of electronic and thermal Free Energies=         -648.128243

                     E (Thermal)             CV                S
                      KCal/Mol        Cal/Mol-Kelvin    Cal/Mol-Kelvin
 Total                   98.054             41.542            105.597
 Electronic               0.000              0.000              0.000
 Translational            0.889              2.981             41.454
 Rotational               0.889              2.981             30.931
 Vibrational             96.276             35.580             33.212
 Vibration     1          0.595              1.980              5.128
 Vibration     2          0.599              1.964              3.941
 Vibration     3          0.604              1.947              3.409
 Vibration     4          0.607              1.939              3.233
 Vibration     5          0.619              1.898              2.624
 Vibration     6          0.633              1.855              2.239
 Vibration     7          0.658              1.778              1.795
 Vibration     8          0.678              1.716              1.551
 Vibration     9          0.696              1.665              1.390
 Vibration    10          0.737              1.546              1.105
 Vibration    11          0.772              1.453              0.934
 Vibration    12          0.812              1.354              0.787
 Vibration    13          0.876              1.203              0.608
 Vibration    14          0.893              1.166              0.570
 Vibration    15          0.906              1.137              0.542
 Vibration    16          0.931              1.085              0.495

 Optimization completed.
    -- Stationary point found.
 Normal termination of Gaussian 16 at Sun Jul 18 16:16:27 2021.

 ----------------------------------------------------------------------
 #p b3lyp/6-31G(d) scrf=(iefpcm,read,solvent=n-octanol) geom=allcheck g
 uess=read
 ----------------------------------------------------------------------

 Structure from the checkpoint file:  "SET_328_BBB272_conf1.geo_195_315_180.chk"
 ---------------------------------------------
 SET_328_BBB272_conf1.geo_195_315_180 geometry
 ---------------------------------------------
 Charge = -1 Multiplicity = 1

 SCF Done:  E(RB3LYP) =  -648.235273626     A.U. after    1 cycles
 Normal termination of Gaussian 16 at Sun Jul 18 16:16:47 2021.

 -----------------------------
 #p B3LYP/6-31G* geom=allcheck
 -----------------------------

 Structure from the checkpoint file:  "SET_328_BBB272_conf1.geo_195_315_180.chk"
 ---------------------------------------------
 SET_328_BBB272_conf1.geo_195_315_180 geometry
 ---------------------------------------------
 Charge = -1 Multiplicity = 1

 SCF Done:  E(RB3LYP) =  -648.134256414     A.U. after   15 cycles
 Normal termination of Gaussian 16 at Sun Jul 18 16:17:55 2021.
 Gaussian 16:  ES64L-G16RevA.03 25-Dec-2016

 --------------------------------------------------------
 #p mp2/aug-cc-pVDZ scf=tight maxdisk=180GB geom=allcheck
 --------------------------------------------------------

 Structure from the checkpoint file:  "SET_328_BBB272_conf1.geo_195_315_180.chk"
 ---------------------------------------------
 SET_328_BBB272_conf1.geo_195_315_180 geometry
 ---------------------------------------------
 Charge = -1 Multiplicity = 1

                         Standard orientation:
 ---------------------------------------------------------------------
 Center     Atomic      Atomic             Coordinates (Angstroms)
 Number     Number       Type             X           Y           Z
 ---------------------------------------------------------------------
      1          6           0        3.319344   -0.760930   -0.307364
      2          1           0        3.436368    0.171095   -0.864357
      3          1           0        3.407595   -1.591794   -1.010340
      4          1           0        4.088904   -0.830237    0.459949
      5          6           0        1.959879   -0.740084    0.331053
      6          8           0        1.728801   -0.572434    1.505731
      7          8           0        1.001558   -1.015160   -0.600779
      8          6           0       -0.329509   -0.742961   -0.289251
      9          6           0       -0.798292    0.566935   -0.092598
     10          6           0        0.073845    1.831817   -0.156942
     11          8           0        1.273295    1.699583   -0.522720
     12          8           0       -0.499738    2.910527    0.150691
     13          6           0       -2.172206    0.711505    0.145560
     14          1           0       -2.534477    1.720445    0.306144
     15          6           0       -3.043453   -0.374886    0.170838
     16          1           0       -4.102095   -0.219324    0.352357
     17          6           0       -2.548511   -1.661760   -0.042066
     18          1           0       -3.212325   -2.518658   -0.029885
     19          6           0       -1.185687   -1.843075   -0.266889
     20          1           0       -0.767753   -2.831016   -0.431303
 ---------------------------------------------------------------------

 SCF Done:  E(RHF) =  -644.490447559     A.U. after   17 cycles
 E2 =    -0.2006044935D+01 EUMP2 =    -0.64649649249421D+03

 The electronic state is 1-A.
 Alpha  occ. eigenvalues --  -20.48754 -20.42568 -20.32585 -20.32451 -11.26923
 Alpha  occ. eigenvalues --  -11.18646 -11.17727 -11.13431 -11.12683 -11.12556
 Alpha  occ. eigenvalues --  -11.12292 -11.11546 -11.11121  -1.33817  -1.23961
 Alpha  occ. eigenvalues --   -1.19636  -1.09274  -1.03266  -0.92038  -0.90182
 Alpha  occ. eigenvalues --   -0.87482  -0.74249  -0.71821  -0.65750  -0.60071
 Alpha  occ. eigenvalues --   -0.57195  -0.55844  -0.54585  -0.52838  -0.49833
 Alpha  occ. eigenvalues --   -0.48183  -0.46471  -0.45786  -0.44490  -0.42438
 Alpha  occ. eigenvalues --   -0.41948  -0.40129  -0.40040  -0.37805  -0.36097
 Alpha  occ. eigenvalues --   -0.34196  -0.32099  -0.23588  -0.23271  -0.21784
 Alpha  occ. eigenvalues --   -0.21032  -0.20676
 Alpha virt. eigenvalues --    0.10881   0.11616   0.12209   0.13244   0.14259
 Alpha virt. eigenvalues --    0.15546   0.15996   0.18283   0.20141   0.20799
 Alpha virt. eigenvalues --    0.21095   0.21588   0.21861   0.22476   0.22985

 Mulliken charges:
               1
     1  C    0.266056
     2  H    0.089455
     3  H   -0.018741
     4  H   -0.045546
     5  C    0.743101
     6  O   -0.805784
     7  O   -1.198641
     8  C    0.649598
     9  C    0.561428
    10  C    0.972956
    11  O   -0.984409
    12  O   -0.986829
    13  C    0.715669
    14  H   -0.635405
    15  C    0.399017
    16  H   -0.472843
    17  C    0.448406
    18  H   -0.458839
    19  C    0.346600
    20  H   -0.585249
 Sum of Mulliken charges =  -1.00000

 Dipole moment (field-independent basis, Debye):
    X=             -1.3801    Y=             -8.9390    Z=             -1.3538  Tot=              9.1457
 Quadrupole moment (field-independent basis, Debye-Ang):
   XX=            -79.5539   YY=           -104.8419   ZZ=            -87.0035
   XY=             -3.0131   XZ=             -3.0306   YZ=              2.1185

 Normal termination of Gaussian 16 at Sun Jul 18 16:28:37 2021.
