 Gaussian 16, Revision A.03,

 ---------------------------------------------------------------
 #p b3lyp/6-31G(d) opt freq scrf=(iefpcm,read,solvent=n-octanol)
 ---------------------------------------------------------------

 --------------------------------------------
 SET_328_BBB30_conf1.geo_060_075_270 geometry
 --------------------------------------------
 Symbolic Z-matrix:
 Charge =  1 Multiplicity = 1

 SCF Done:  E(RB3LYP) =  -445.278292201     A.U. after   12 cycles
 SCF Done:  E(RB3LYP) =  -445.305762620     A.U. after   11 cycles
 SCF Done:  E(RB3LYP) =  -445.285772765     A.U. after   12 cycles
 SCF Done:  E(RB3LYP) =  -445.317382450     A.U. after   11 cycles
 SCF Done:  E(RB3LYP) =  -445.318822696     A.U. after   11 cycles
 SCF Done:  E(RB3LYP) =  -445.318367840     A.U. after   10 cycles
 SCF Done:  E(RB3LYP) =  -445.319260884     A.U. after   10 cycles
 SCF Done:  E(RB3LYP) =  -445.319145733     A.U. after    9 cycles
 SCF Done:  E(RB3LYP) =  -445.319103592     A.U. after    9 cycles
 SCF Done:  E(RB3LYP) =  -445.319302126     A.U. after   10 cycles
 SCF Done:  E(RB3LYP) =  -445.318964525     A.U. after   10 cycles
 SCF Done:  E(RB3LYP) =  -445.319070302     A.U. after    9 cycles
 SCF Done:  E(RB3LYP) =  -445.319152361     A.U. after    8 cycles
 SCF Done:  E(RB3LYP) =  -445.319133473     A.U. after    8 cycles
 SCF Done:  E(RB3LYP) =  -445.319139963     A.U. after    7 cycles
 SCF Done:  E(RB3LYP) =  -445.319135531     A.U. after    7 cycles
 Optimization completed.
    -- Stationary point found.
 Normal termination of Gaussian 16 at Sun Jul 18 16:25:19 2021.

 --------------------------------------------------------------------
 #P Geom=AllCheck Guess=TCheck SCRF=Check GenChk RB3LYP/6-31G(d) Freq
 --------------------------------------------------------------------

 Structure from the checkpoint file:  "SET_328_BBB30_conf1.geo_060_075_270.chk"
 --------------------------------------------
 SET_328_BBB30_conf1.geo_060_075_270 geometry
 --------------------------------------------
 Charge =  1 Multiplicity = 1

 SCF Done:  E(RB3LYP) =  -445.319135531     A.U. after    1 cycles

  Exact polarizability: 156.816 -16.658 106.068  10.956  21.439 116.772
 Approx polarizability: 179.131 -22.538 131.041  14.674  33.688 154.084

 ******    1 imaginary frequencies (negative Signs) ******

                      1                      2                      3
                      A                      A                      A
 Frequencies --     -3.3336                75.1914               100.4873
 Red. masses --      3.1610                 3.4598                 2.4998
 Frc consts  --      0.0000                 0.0115                 0.0149
 IR Inten    --      3.3356                 4.8454                 3.2366

                      4                      5                      6
                      A                      A                      A
 Frequencies --    117.5518               224.3681               243.6788
 Red. masses --      2.3295                 1.1289                 1.8548
 Frc consts  --      0.0190                 0.0335                 0.0649
 IR Inten    --      2.3845                 1.8038                 5.4635

                      7                      8                      9
                      A                      A                      A
 Frequencies --    250.0342               274.7543               289.4475
 Red. masses --      1.5214                 2.5726                 2.7813
 Frc consts  --      0.0560                 0.1144                 0.1373
 IR Inten    --      7.0879                 4.9257                 4.1133

                     10                     11                     12
                      A                      A                      A
 Frequencies --    337.5906               421.2041               445.5801
 Red. masses --      2.3345                 2.9937                 2.9816
 Frc consts  --      0.1568                 0.3129                 0.3488
 IR Inten    --      0.0696                 0.2229                 1.1676

                     13                     14                     15
                      A                      A                      A
 Frequencies --    465.2179               522.6233               609.2904
 Red. masses --      2.8706                 2.3720                 4.4189
 Frc consts  --      0.3660                 0.3817                 0.9665
 IR Inten    --      8.4037                 3.4594                 3.6929

                     16                     17                     18
                      A                      A                      A
 Frequencies --    635.0215               719.6198               750.9364
 Red. masses --      6.2507                 2.3021                 1.6301
 Frc consts  --      1.4851                 0.7024                 0.5416
 IR Inten    --      0.0273                18.3749                62.7288

                     19                     20                     21
                      A                      A                      A
 Frequencies --    792.9602               821.5331               831.6659
 Red. masses --      2.3282                 1.3072                 2.9431
 Frc consts  --      0.8625                 0.5198                 1.1994
 IR Inten    --      0.7021                20.5271                 3.9551

                     22                     23                     24
                      A                      A                      A
 Frequencies --    870.6204               917.8063               932.8444
 Red. masses --      1.2501                 1.5185                 1.8060
 Frc consts  --      0.5583                 0.7537                 0.9260
 IR Inten    --      0.1928                 1.0830                 0.8963

                     25                     26                     27
                      A                      A                      A
 Frequencies --    949.6987               982.4121              1011.0877
 Red. masses --      1.6194                 1.3480                 1.2862
 Frc consts  --      0.8605                 0.7665                 0.7747
 IR Inten    --      3.0213                 0.1928                 0.2619

                     28                     29                     30
                      A                      A                      A
 Frequencies --   1015.1749              1019.1532              1040.5051
 Red. masses --      4.5730                 5.5060                 1.6246
 Frc consts  --      2.7768                 3.3695                 1.0363
 IR Inten    --     15.0426                 1.7804                16.0815

                     31                     32                     33
                      A                      A                      A
 Frequencies --   1059.7276              1098.2439              1109.3054
 Red. masses --      2.1929                 1.7076                 1.5207
 Frc consts  --      1.4509                 1.2135                 1.1026
 IR Inten    --      3.6997                12.3770                17.6264

                     34                     35                     36
                      A                      A                      A
 Frequencies --   1127.8273              1165.3791              1193.3742
 Red. masses --      1.7810                 1.2231                 1.0958
 Frc consts  --      1.3347                 0.9787                 0.9194
 IR Inten    --     17.5994                 4.3880                 0.0733

                     37                     38                     39
                      A                      A                      A
 Frequencies --   1214.1009              1221.2086              1239.0656
 Red. masses --      1.1375                 1.6891                 2.5949
 Frc consts  --      0.9879                 1.4842                 2.3472
 IR Inten    --      0.0773                 4.3797                 0.0798

                     40                     41                     42
                      A                      A                      A
 Frequencies --   1281.3381              1332.7841              1359.6145
 Red. masses --      1.4906                 1.3095                 2.3147
 Frc consts  --      1.4419                 1.3704                 2.5210
 IR Inten    --      5.0372                 2.4734                 3.2340

                     43                     44                     45
                      A                      A                      A
 Frequencies --   1368.4369              1383.8808              1399.4146
 Red. masses --      1.7710                 1.3359                 1.2712
 Frc consts  --      1.9540                 1.5074                 1.4667
 IR Inten    --      0.9641                 2.8971                18.9503

                     46                     47                     48
                      A                      A                      A
 Frequencies --   1435.2445              1449.1000              1463.5792
 Red. masses --      1.2507                 1.2816                 1.2473
 Frc consts  --      1.5180                 1.5856                 1.5742
 IR Inten    --      7.3165                 8.3229                68.9764

                     49                     50                     51
                      A                      A                      A
 Frequencies --   1486.1916              1503.1571              1514.0819
 Red. masses --      1.1693                 2.0781                 1.0682
 Frc consts  --      1.5217                 2.7665                 1.4428
 IR Inten    --     17.4710                10.6583                 3.4406

                     52                     53                     54
                      A                      A                      A
 Frequencies --   1520.2623              1527.5409              1533.0103
 Red. masses --      1.0596                 1.0371                 1.0806
 Frc consts  --      1.4429                 1.4257                 1.4962
 IR Inten    --      8.1993                13.3267                 7.3952

                     55                     56                     57
                      A                      A                      A
 Frequencies --   1542.9058              1547.7043              1646.8006
 Red. masses --      1.0525                 2.1916                 5.2101
 Frc consts  --      1.4762                 3.0930                 8.3249
 IR Inten    --     18.5785                12.7461                 1.0288

                     58                     59                     60
                      A                      A                      A
 Frequencies --   1654.7954              1666.9732              3078.8666
 Red. masses --      1.0888                 5.5645                 1.0591
 Frc consts  --      1.7567                 9.1103                 5.9154
 IR Inten    --    148.9655                 1.8529                 9.6633

                     61                     62                     63
                      A                      A                      A
 Frequencies --   3084.1394              3106.9995              3128.9977
 Red. masses --      1.0424                 1.0875                 1.0968
 Frc consts  --      5.8419                 6.1853                 6.3268
 IR Inten    --     23.0193                 3.5851                14.5180

                     64                     65                     66
                      A                      A                      A
 Frequencies --   3132.6068              3157.0190              3170.1339
 Red. masses --      1.0320                 1.1005                 1.1027
 Frc consts  --      5.9669                 6.4626                 6.5291
 IR Inten    --     13.3527                21.3888                16.1469

                     67                     68                     69
                      A                      A                      A
 Frequencies --   3199.6705              3203.1740              3214.3563
 Red. masses --      1.0872                 1.0872                 1.0899
 Frc consts  --      6.5578                 6.5723                 6.6347
 IR Inten    --     12.0034                 7.2186                 7.6952

                     70                     71                     72
                      A                      A                      A
 Frequencies --   3221.1202              3224.1698              3233.0602
 Red. masses --      1.0940                 1.1091                 1.0978
 Frc consts  --      6.6880                 6.7928                 6.7608
 IR Inten    --     44.1928                 4.9604                22.2729

                     73                     74                     75
                      A                      A                      A
 Frequencies --   3247.4456              3376.9066              3417.0911
 Red. masses --      1.1081                 1.0559                 1.0959
 Frc consts  --      6.8852                 7.0946                 7.5394
 IR Inten    --      2.7615               113.3652               149.8073

 - Thermochemistry -
 -------------------
 Temperature   298.150 Kelvin.  Pressure   1.00000 Atm.
 Atom     1 has atomic number  6 and mass  12.00000

 Molecular mass:   150.12827 amu.
 Principal axes and moments of inertia in atomic units:
                           1         2         3
     Eigenvalues --   879.221902768.163313001.55101
           X            0.99996  -0.00878   0.00289
           Y            0.00876   0.99994   0.00709
           Z           -0.00295  -0.00707   0.99997
 This molecule is an asymmetric top.
 Rotational symmetry number  1.
 Warning -- assumption of classical behavior for rotation
           may cause significant error
 Rotational temperatures (Kelvin)      0.09851     0.03129     0.02886
 Rotational constants (GHZ):           2.05266     0.65196     0.60127
    1 imaginary frequencies ignored.
 Zero-point vibrational energy     651419.7 (Joules/Mol)
                                  155.69304 (Kcal/Mol)
 Warning -- explicit consideration of  14 degrees of freedom as
           vibrations may cause significant error
 Vibrational temperatures:    108.18   144.58   169.13   322.82   350.60
          (Kelvin)            359.74   395.31   416.45   485.72   606.02
                              641.09   669.34   751.94   876.63   913.65
                             1035.37  1080.43  1140.89  1182.00  1196.58
                             1252.63  1320.52  1342.15  1366.40  1413.47
                             1454.73  1460.61  1466.33  1497.05  1524.71
                             1580.13  1596.04  1622.69  1676.72  1717.00
                             1746.82  1757.05  1782.74  1843.56  1917.58
                             1956.18  1968.88  1991.10  2013.45  2065.00
                             2084.93  2105.76  2138.30  2162.71  2178.43
                             2187.32  2197.79  2205.66  2219.90  2226.80
                             2369.38  2380.88  2398.40  4429.80  4437.39
                             4470.28  4501.93  4507.12  4542.25  4561.12
                             4603.61  4608.65  4624.74  4634.47  4638.86
                             4651.65  4672.35  4858.62  4916.43

 Zero-point correction=                           0.248113 (Hartree/Particle)
 Thermal correction to Energy=                    0.258342
 Thermal correction to Enthalpy=                  0.259286
 Thermal correction to Gibbs Free Energy=         0.212582
 Sum of electronic and zero-point Energies=           -445.071023
 Sum of electronic and thermal Energies=              -445.060794
 Sum of electronic and thermal Enthalpies=            -445.059850
 Sum of electronic and thermal Free Energies=         -445.106553

                     E (Thermal)             CV                S
                      KCal/Mol        Cal/Mol-Kelvin    Cal/Mol-Kelvin
 Total                  162.112             40.421             98.296
 Electronic               0.000              0.000              0.000
 Translational            0.889              2.981             40.929
 Rotational               0.889              2.981             30.369
 Vibrational            160.334             34.460             26.997
 Vibration     1          0.599              1.966              4.013
 Vibration     2          0.604              1.949              3.445
 Vibration     3          0.608              1.935              3.140
 Vibration     4          0.649              1.804              1.924
 Vibration     5          0.659              1.773              1.776
 Vibration     6          0.663              1.763              1.730
 Vibration     7          0.677              1.720              1.566
 Vibration     8          0.686              1.693              1.477
 Vibration     9          0.718              1.600              1.224
 Vibration    10          0.784              1.424              0.888
 Vibration    11          0.805              1.371              0.809
 Vibration    12          0.823              1.327              0.751
 Vibration    13          0.878              1.200              0.604
 Vibration    14          0.968              1.012              0.434

 Optimization completed on the basis of negligible forces.
    -- Stationary point found.
 Normal termination of Gaussian 16 at Sun Jul 18 16:41:06 2021.

 ----------------------------------------------------------------------
 #p b3lyp/6-31G(d) scrf=(iefpcm,read,solvent=n-octanol) geom=allcheck g
 uess=read
 ----------------------------------------------------------------------

 Structure from the checkpoint file:  "SET_328_BBB30_conf1.geo_060_075_270.chk"
 --------------------------------------------
 SET_328_BBB30_conf1.geo_060_075_270 geometry
 --------------------------------------------
 Charge =  1 Multiplicity = 1

 SCF Done:  E(RB3LYP) =  -445.323204276     A.U. after    1 cycles
 Normal termination of Gaussian 16 at Sun Jul 18 16:41:38 2021.

 -----------------------------
 #p B3LYP/6-31G* geom=allcheck
 -----------------------------

 Structure from the checkpoint file:  "SET_328_BBB30_conf1.geo_060_075_270.chk"
 --------------------------------------------
 SET_328_BBB30_conf1.geo_060_075_270 geometry
 --------------------------------------------
 Charge =  1 Multiplicity = 1

 SCF Done:  E(RB3LYP) =  -445.226135280     A.U. after   13 cycles
 Normal termination of Gaussian 16 at Sun Jul 18 16:42:54 2021.
 Gaussian 16:  ES64L-G16RevA.03 25-Dec-2016

 --------------------------------------------------------
 #p mp2/aug-cc-pVDZ scf=tight maxdisk=180GB geom=allcheck
 --------------------------------------------------------

 Structure from the checkpoint file:  "SET_328_BBB30_conf1.geo_060_075_270.chk"
 --------------------------------------------
 SET_328_BBB30_conf1.geo_060_075_270 geometry
 --------------------------------------------
 Charge =  1 Multiplicity = 1

                         Standard orientation:
 ---------------------------------------------------------------------
 Center     Atomic      Atomic             Coordinates (Angstroms)
 Number     Number       Type             X           Y           Z
 ---------------------------------------------------------------------
      1          6           0        1.098874    1.953760   -0.826434
      2          1           0        1.338527    3.004239   -0.674006
      3          1           0        0.102500    1.727523   -0.457674
      4          1           0        1.184073    1.696990   -1.880451
      5          7           0        2.093979    1.132133   -0.061955
      6          1           0        2.063292    1.390216    0.934876
      7          6           0        1.956201   -0.384030   -0.202353
      8          6           0        3.305330   -1.026330    0.099404
      9          1           0        4.081051   -0.700402   -0.599025
     10          1           0        3.211151   -2.109721    0.005709
     11          1           0        3.634470   -0.808053    1.119267
     12          1           0        1.691546   -0.542798   -1.251461
     13          6           0        0.853329   -0.940937    0.716238
     14          1           0        1.079075   -0.668364    1.753163
     15          1           0        0.959652   -2.029337    0.662840
     16          6           0       -0.572683   -0.559487    0.381842
     17          6           0       -1.202258   -1.077256   -0.757885
     18          1           0       -0.666423   -1.766587   -1.402510
     19          6           0       -2.514711   -0.724795   -1.066792
     20          1           0       -2.988761   -1.137817   -1.950654
     21          6           0       -3.220083    0.149395   -0.237232
     22          1           0       -4.242233    0.421175   -0.476620
     23          6           0       -2.606919    0.662911    0.905635
     24          1           0       -3.150179    1.334861    1.561519
     25          6           0       -1.292549    0.306744    1.212025
     26          1           0       -0.821702    0.696638    2.109266
     27          1           0        3.038923    1.406667   -0.367242
 ---------------------------------------------------------------------

 SCF Done:  E(RHF) =  -442.292364319     A.U. after   15 cycles
 E2 =    -0.1587386378D+01 EUMP2 =    -0.44387975069746D+03

 The electronic state is 1-A.
 Alpha  occ. eigenvalues --  -15.86692 -11.46465 -11.45018 -11.39445 -11.38974
 Alpha  occ. eigenvalues --  -11.37527 -11.36200 -11.36043 -11.35808 -11.35763
 Alpha  occ. eigenvalues --  -11.35360  -1.48603  -1.28322  -1.23659  -1.16598
 Alpha  occ. eigenvalues --   -1.13526  -1.11847  -1.07978  -1.00793  -0.95071
 Alpha  occ. eigenvalues --   -0.94180  -0.92085  -0.84418  -0.83482  -0.81720
 Alpha  occ. eigenvalues --   -0.76866  -0.75746  -0.74595  -0.73850  -0.73321
 Alpha  occ. eigenvalues --   -0.71681  -0.70430  -0.69034  -0.68573  -0.67022
 Alpha  occ. eigenvalues --   -0.65898  -0.61019  -0.60830  -0.60681  -0.45561
 Alpha  occ. eigenvalues --   -0.45019
 Alpha virt. eigenvalues --   -0.09061  -0.06894  -0.05929  -0.05571  -0.03919
 Alpha virt. eigenvalues --   -0.03742  -0.03429  -0.03312  -0.03231  -0.01850
 Alpha virt. eigenvalues --   -0.01436  -0.01134  -0.00773  -0.00450  -0.00127

 Mulliken charges:
               1
     1  C    0.905254
     2  H   -0.159778
     3  H   -0.067563
     4  H   -0.077614
     5  N   -0.465668
     6  H    0.186153
     7  C   -0.365122
     8  C    0.888901
     9  H   -0.062756
    10  H   -0.019208
    11  H   -0.014069
    12  H   -0.430744
    13  C    0.632589
    14  H   -0.205448
    15  H   -0.129258
    16  C    1.090412
    17  C    0.418929
    18  H   -0.733738
    19  C    0.113453
    20  H   -0.452097
    21  C    0.677607
    22  H   -0.422814
    23  C    0.159432
    24  H   -0.445089
    25  C    0.489054
    26  H   -0.684564
    27  H    0.173747
 Sum of Mulliken charges =   1.00000

 Dipole moment (field-independent basis, Debye):
    X=              7.3656    Y=              3.4908    Z=             -0.6388  Tot=              8.1760
 Quadrupole moment (field-independent basis, Debye-Ang):
   XX=            -34.3788   YY=            -54.9517   ZZ=            -60.2811
   XY=              4.5966   XZ=              1.0199   YZ=              2.3558

 Normal termination of Gaussian 16 at Sun Jul 18 16:56:45 2021.
