 Gaussian 16, Revision A.03,

 ---------------------------------------------------------------
 #p b3lyp/6-31G(d) opt freq scrf=(iefpcm,read,solvent=n-octanol)
 ---------------------------------------------------------------

 --------------------------------------------
 SET_328_BBB20_conf1.geo_120_180_180 geometry
 --------------------------------------------
 Symbolic Z-matrix:
 Charge =  1 Multiplicity = 1

 SCF Done:  E(RB3LYP) =  -769.781543037     A.U. after   13 cycles
 SCF Done:  E(RB3LYP) =  -769.817299532     A.U. after   11 cycles
 SCF Done:  E(RB3LYP) =  -769.812345708     A.U. after   12 cycles
 SCF Done:  E(RB3LYP) =  -769.836000271     A.U. after   11 cycles
 SCF Done:  E(RB3LYP) =  -769.837538975     A.U. after   11 cycles
 SCF Done:  E(RB3LYP) =  -769.837838005     A.U. after   11 cycles
 SCF Done:  E(RB3LYP) =  -769.838313470     A.U. after   10 cycles
 SCF Done:  E(RB3LYP) =  -769.837895036     A.U. after   11 cycles
 SCF Done:  E(RB3LYP) =  -769.838913303     A.U. after   10 cycles
 SCF Done:  E(RB3LYP) =  -769.839139471     A.U. after   10 cycles
 SCF Done:  E(RB3LYP) =  -769.839379596     A.U. after    9 cycles
 SCF Done:  E(RB3LYP) =  -769.839379760     A.U. after    7 cycles
 SCF Done:  E(RB3LYP) =  -769.839363869     A.U. after    9 cycles
 SCF Done:  E(RB3LYP) =  -769.839365230     A.U. after    6 cycles
 SCF Done:  E(RB3LYP) =  -769.839379728     A.U. after    9 cycles
 SCF Done:  E(RB3LYP) =  -769.839364556     A.U. after    9 cycles
 Optimization completed.
    -- Stationary point found.
 Normal termination of Gaussian 16 at Sun Jul 18 17:23:42 2021.

 --------------------------------------------------------------------
 #P Geom=AllCheck Guess=TCheck SCRF=Check GenChk RB3LYP/6-31G(d) Freq
 --------------------------------------------------------------------

 Structure from the checkpoint file:  "SET_328_BBB20_conf1.geo_120_180_180.chk"
 --------------------------------------------
 SET_328_BBB20_conf1.geo_120_180_180 geometry
 --------------------------------------------
 Charge =  1 Multiplicity = 1

 SCF Done:  E(RB3LYP) =  -769.839364556     A.U. after    1 cycles

  Exact polarizability: 254.176 -33.456 240.129  36.260  29.597 189.338
 Approx polarizability: 297.772 -32.191 285.723  53.089  42.124 249.268

                      1                      2                      3
                      A                      A                      A
 Frequencies --     37.1892                46.0545                53.5591
 Red. masses --      3.9163                 4.1868                 3.9573
 Frc consts  --      0.0032                 0.0052                 0.0067
 IR Inten    --      3.7299                11.3746                20.8103

                      4                      5                      6
                      A                      A                      A
 Frequencies --     86.2657                94.8144               131.5924
 Red. masses --      1.7307                 3.7328                 3.1795
 Frc consts  --      0.0076                 0.0198                 0.0324
 IR Inten    --      0.1687                 0.3499                 4.0249

                      7                      8                      9
                      A                      A                      A
 Frequencies --    142.1580               156.0525               187.5477
 Red. masses --      2.8631                 3.0827                 3.2157
 Frc consts  --      0.0341                 0.0442                 0.0666
 IR Inten    --      2.6618                 3.3374                 5.8156

                     10                     11                     12
                      A                      A                      A
 Frequencies --    241.5220               273.5304               294.5410
 Red. masses --      4.1459                 3.3724                 2.7387
 Frc consts  --      0.1425                 0.1487                 0.1400
 IR Inten    --     10.9323                 3.9430                 2.6794

                     13                     14                     15
                      A                      A                      A
 Frequencies --    318.1410               335.6719               367.3427
 Red. masses --      2.9527                 4.3413                 2.5865
 Frc consts  --      0.1761                 0.2882                 0.2056
 IR Inten    --      3.2043                 1.1867                 2.2826

                     16                     17                     18
                      A                      A                      A
 Frequencies --    385.0904               408.5982               436.9837
 Red. masses --      1.3228                 3.9532                 2.7314
 Frc consts  --      0.1156                 0.3889                 0.3073
 IR Inten    --      2.0525                12.0960                 2.4338

                     19                     20                     21
                      A                      A                      A
 Frequencies --    461.8693               471.4645               498.1303
 Red. masses --      2.9340                 3.8543                 3.1485
 Frc consts  --      0.3688                 0.5048                 0.4603
 IR Inten    --      4.6550                 5.8772                 2.2453

                     22                     23                     24
                      A                      A                      A
 Frequencies --    524.3473               553.0237               574.9187
 Red. masses --      3.9210                 4.0159                 4.6543
 Frc consts  --      0.6352                 0.7236                 0.9064
 IR Inten    --      0.0471                 0.6889                 0.4795

                     25                     26                     27
                      A                      A                      A
 Frequencies --    602.8851               615.9403               634.3625
 Red. masses --      3.2524                 4.0110                 5.6769
 Frc consts  --      0.6965                 0.8966                 1.3460
 IR Inten    --      2.5184                15.3889                 6.8357

                     28                     29                     30
                      A                      A                      A
 Frequencies --    700.5466               726.8626               755.7218
 Red. masses --      5.0380                 3.1097                 1.4429
 Frc consts  --      1.4568                 0.9680                 0.4855
 IR Inten    --      0.6359                 2.5522                21.0515

                     31                     32                     33
                      A                      A                      A
 Frequencies --    760.4675               767.3503               783.3558
 Red. masses --      1.5662                 1.5094                 1.7628
 Frc consts  --      0.5336                 0.5237                 0.6373
 IR Inten    --     12.9986                18.4642                62.3811

                     34                     35                     36
                      A                      A                      A
 Frequencies --    786.6307               811.7380               864.3578
 Red. masses --      2.4542                 4.1331                 1.6144
 Frc consts  --      0.8948                 1.6045                 0.7106
 IR Inten    --     10.9321                 3.7283                 0.4404

                     37                     38                     39
                      A                      A                      A
 Frequencies --    868.2129               882.8969               897.9431
 Red. masses --      1.3758                 1.4671                 1.8732
 Frc consts  --      0.6110                 0.6738                 0.8899
 IR Inten    --      2.2371                 0.8216                 8.2508

                     40                     41                     42
                      A                      A                      A
 Frequencies --    931.7016               944.0733               947.2908
 Red. masses --      2.3218                 1.5845                 1.4782
 Frc consts  --      1.1875                 0.8320                 0.7815
 IR Inten    --     20.3285                 8.0591                 3.5994

                     43                     44                     45
                      A                      A                      A
 Frequencies --    948.5979               979.9736               984.7122
 Red. masses --      2.0214                 1.2869                 1.2555
 Frc consts  --      1.0717                 0.7282                 0.7172
 IR Inten    --     23.0690                 0.2453                 0.0753

                     46                     47                     48
                      A                      A                      A
 Frequencies --    989.4514              1013.0223              1016.3329
 Red. masses --      2.0415                 1.2008                 2.9389
 Frc consts  --      1.1776                 0.7260                 1.7886
 IR Inten    --      1.7309                22.4320                 5.0915

                     49                     50                     51
                      A                      A                      A
 Frequencies --   1053.7597              1061.1229              1065.8083
 Red. masses --      2.4609                 3.2059                 2.2463
 Frc consts  --      1.6100                 2.1268                 1.5034
 IR Inten    --      2.9413                 4.0054                 3.1547

                     52                     53                     54
                      A                      A                      A
 Frequencies --   1080.0531              1092.5036              1135.3259
 Red. masses --      3.1615                 2.3098                 1.9343
 Frc consts  --      2.1729                 1.6243                 1.4690
 IR Inten    --     10.4596                 5.8575                41.4707

                     55                     56                     57
                      A                      A                      A
 Frequencies --   1153.0259              1172.1704              1178.8666
 Red. masses --      1.8961                 1.7635                 1.5947
 Frc consts  --      1.4852                 1.4276                 1.3058
 IR Inten    --     12.5640                39.9949                25.5444

                     58                     59                     60
                      A                      A                      A
 Frequencies --   1184.2079              1192.3790              1201.1883
 Red. masses --      1.1243                 1.2555                 1.1608
 Frc consts  --      0.9289                 1.0517                 0.9868
 IR Inten    --      4.7048                 3.1666                 3.0565

                     61                     62                     63
                      A                      A                      A
 Frequencies --   1212.8938              1234.7034              1249.2215
 Red. masses --      1.6615                 2.3690                 2.6723
 Frc consts  --      1.4401                 2.1278                 2.4570
 IR Inten    --      3.6283                 6.3849               104.9099

                     64                     65                     66
                      A                      A                      A
 Frequencies --   1259.6647              1283.0588              1307.2209
 Red. masses --      1.5643                 1.9116                 1.4759
 Frc consts  --      1.4625                 1.8542                 1.4860
 IR Inten    --     40.2964               149.2205                20.5733

                     67                     68                     69
                      A                      A                      A
 Frequencies --   1323.9842              1334.0320              1341.2277
 Red. masses --      1.6055                 1.8055                 1.8977
 Frc consts  --      1.6582                 1.8931                 2.0113
 IR Inten    --      5.6022                34.6390                31.0316

                     70                     71                     72
                      A                      A                      A
 Frequencies --   1354.8020              1363.6244              1369.0506
 Red. masses --      2.1880                 3.2799                 1.1383
 Frc consts  --      2.3662                 3.5934                 1.2571
 IR Inten    --     21.1484                14.3898                 2.1258

                     73                     74                     75
                      A                      A                      A
 Frequencies --   1384.1851              1391.7052              1397.8262
 Red. masses --      1.5224                 1.3137                 1.4960
 Frc consts  --      1.7186                 1.4991                 1.7223
 IR Inten    --      6.7340                38.2824                 8.1431

                     76                     77                     78
                      A                      A                      A
 Frequencies --   1433.8817              1445.9387              1489.4413
 Red. masses --      1.3606                 1.3993                 1.7393
 Frc consts  --      1.6482                 1.7237                 2.2734
 IR Inten    --     10.8815                65.0646                21.5389

                     79                     80                     81
                      A                      A                      A
 Frequencies --   1495.9935              1501.2245              1504.8699
 Red. masses --      1.4668                 1.2987                 1.7110
 Frc consts  --      1.9340                 1.7245                 2.2830
 IR Inten    --     38.6930                 2.0149                59.6234

                     82                     83                     84
                      A                      A                      A
 Frequencies --   1508.1707              1526.7689              1530.4848
 Red. masses --      1.1056                 1.1180                 2.0490
 Frc consts  --      1.4816                 1.5354                 2.8277
 IR Inten    --      1.2113                15.7842               188.5815

                     85                     86                     87
                      A                      A                      A
 Frequencies --   1543.7223              1559.3974              1579.8905
 Red. masses --      2.4045                 1.1649                 1.1439
 Frc consts  --      3.3760                 1.6690                 1.6822
 IR Inten    --     21.7188                 7.4816               191.4839

                     88                     89                     90
                      A                      A                      A
 Frequencies --   1629.9013              1641.9592              1654.6482
 Red. masses --      5.8198                 6.4697                 5.8908
 Frc consts  --      9.1092                10.2769                 9.5024
 IR Inten    --     21.2338                12.4755                29.9604

                     91                     92                     93
                      A                      A                      A
 Frequencies --   1660.7203              1667.6454              1691.3117
 Red. masses --      5.7694                 1.0410                 1.0385
 Frc consts  --      9.3751                 1.7057                 1.7502
 IR Inten    --     11.5044                74.4485                92.7204

                     94                     95                     96
                      A                      A                      A
 Frequencies --   3011.4173              3040.3079              3061.7898
 Red. masses --      1.0729                 1.0630                 1.0671
 Frc consts  --      5.7328                 5.7891                 5.8941
 IR Inten    --     73.5360                39.5669                20.6497

                     97                     98                     99
                      A                      A                      A
 Frequencies --   3077.4323              3082.7350              3108.0658
 Red. masses --      1.0917                 1.0595                 1.1044
 Frc consts  --      6.0914                 5.9322                 6.2859
 IR Inten    --     69.3288                17.9040                38.0844

                    100                    101                    102
                      A                      A                      A
 Frequencies --   3123.2739              3124.4263              3143.4247
 Red. masses --      1.0822                 1.0757                 1.0935
 Frc consts  --      6.2196                 6.1869                 6.3660
 IR Inten    --     12.3887                 8.0496                30.4700

                    103                    104                    105
                      A                      A                      A
 Frequencies --   3179.8403              3181.0639              3197.0740
 Red. masses --      1.1101                 1.0878                 1.0860
 Frc consts  --      6.6132                 6.4857                 6.5402
 IR Inten    --     19.4259                20.1214                 6.4101

                    106                    107                    108
                      A                      A                      A
 Frequencies --   3203.0789              3205.4835              3218.2138
 Red. masses --      1.0876                 1.0890                 1.0940
 Frc consts  --      6.5743                 6.5930                 6.6754
 IR Inten    --     10.1551                17.9333                48.5771

                    109                    110                    111
                      A                      A                      A
 Frequencies --   3218.8306              3227.9244              3232.6313
 Red. masses --      1.0927                 1.0963                 1.0928
 Frc consts  --      6.6706                 6.7302                 6.7285
 IR Inten    --     42.9556                24.5192                29.3234

                    112                    113                    114
                      A                      A                      A
 Frequencies --   3387.2046              3459.2282              3487.3506
 Red. masses --      1.0402                 1.0891                 1.0932
 Frc consts  --      7.0313                 7.6786                 7.8331
 IR Inten    --    128.5993               170.0227               185.0474

 - Thermochemistry -
 -------------------
 Temperature   298.150 Kelvin.  Pressure   1.00000 Atm.
 Atom     1 has atomic number  7 and mass  14.00307

 Molecular mass:   253.17047 amu.
 Principal axes and moments of inertia in atomic units:
                           1         2         3
     Eigenvalues --  4258.768295831.824378329.88118
           X            0.99789   0.06497   0.00165
           Y           -0.06498   0.99786   0.00724
           Z           -0.00117  -0.00733   0.99997
 This molecule is an asymmetric top.
 Rotational symmetry number  1.
 Warning -- assumption of classical behavior for rotation
           may cause significant error
 Rotational temperatures (Kelvin)      0.02034     0.01485     0.01040
 Rotational constants (GHZ):           0.42377     0.30946     0.21666
 Zero-point vibrational energy     931347.9 (Joules/Mol)
                                  222.59750 (Kcal/Mol)
 Warning -- explicit consideration of  26 degrees of freedom as
           vibrations may cause significant error
 Vibrational temperatures:     53.51    66.26    77.06   124.12   136.42
          (Kelvin)            189.33   204.53   224.52   269.84   347.50
                              393.55   423.78   457.73   482.96   528.52
                              554.06   587.88   628.72   664.53   678.33
                              716.70   754.42   795.68   827.18   867.42
                              886.20   912.71  1007.93  1045.79  1087.32
                             1094.14  1104.05  1127.07  1131.79  1167.91
                             1243.62  1249.16  1270.29  1291.94  1340.51
                             1358.31  1362.94  1364.82  1409.96  1416.78
                             1423.60  1457.51  1462.28  1516.13  1526.72
                             1533.46  1553.96  1571.87  1633.48  1658.95
                             1686.49  1696.13  1703.81  1715.57  1728.24
                             1745.08  1776.46  1797.35  1812.38  1846.04
                             1880.80  1904.92  1919.37  1929.73  1949.26
                             1961.95  1969.76  1991.53  2002.35  2011.16
                             2063.04  2080.38  2142.97  2152.40  2159.93
                             2165.17  2169.92  2196.68  2202.03  2221.07
                             2243.63  2273.11  2345.06  2362.41  2380.67
                             2389.41  2399.37  2433.42  4332.76  4374.33
                             4405.23  4427.74  4435.37  4471.81  4493.69
                             4495.35  4522.69  4575.08  4576.84  4599.88
                             4608.52  4611.98  4630.29  4631.18  4644.26
                             4651.04  4873.43  4977.06  5017.52

 Zero-point correction=                           0.354732 (Hartree/Particle)
 Thermal correction to Energy=                    0.371127
 Thermal correction to Enthalpy=                  0.372071
 Thermal correction to Gibbs Free Energy=         0.310247
 Sum of electronic and zero-point Energies=           -769.484633
 Sum of electronic and thermal Energies=              -769.468238
 Sum of electronic and thermal Enthalpies=            -769.467293
 Sum of electronic and thermal Free Energies=         -769.529118

                     E (Thermal)             CV                S
                      KCal/Mol        Cal/Mol-Kelvin    Cal/Mol-Kelvin
 Total                  232.886             65.888            130.120
 Electronic               0.000              0.000              0.000
 Translational            0.889              2.981             42.487
 Rotational               0.889              2.981             33.692
 Vibrational            231.108             59.926             53.942
 Vibration     1          0.594              1.982              5.403
 Vibration     2          0.595              1.979              4.980
 Vibration     3          0.596              1.976              4.681
 Vibration     4          0.601              1.959              3.743
 Vibration     5          0.603              1.953              3.558
 Vibration     6          0.612              1.922              2.923
 Vibration     7          0.616              1.911              2.775
 Vibration     8          0.620              1.896              2.597
 Vibration     9          0.632              1.857              2.252
 Vibration    10          0.658              1.777              1.792
 Vibration    11          0.676              1.722              1.574
 Vibration    12          0.689              1.684              1.448
 Vibration    13          0.705              1.639              1.320
 Vibration    14          0.717              1.604              1.233
 Vibration    15          0.740              1.539              1.091
 Vibration    16          0.754              1.502              1.019
 Vibration    17          0.773              1.452              0.932
 Vibration    18          0.797              1.390              0.836
 Vibration    19          0.820              1.335              0.761
 Vibration    20          0.828              1.313              0.733
 Vibration    21          0.854              1.254              0.663
 Vibration    22          0.879              1.196              0.600
 Vibration    23          0.908              1.133              0.538
 Vibration    24          0.931              1.086              0.495
 Vibration    25          0.961              1.026              0.445
 Vibration    26          0.976              0.998              0.423

 Optimization completed.
    -- Stationary point found.
 Normal termination of Gaussian 16 at Sun Jul 18 18:13:41 2021.

 ----------------------------------------------------------------------
 #p b3lyp/6-31G(d) scrf=(iefpcm,read,solvent=n-octanol) geom=allcheck g
 uess=read
 ----------------------------------------------------------------------

 Structure from the checkpoint file:  "SET_328_BBB20_conf1.geo_120_180_180.chk"
 --------------------------------------------
 SET_328_BBB20_conf1.geo_120_180_180 geometry
 --------------------------------------------
 Charge =  1 Multiplicity = 1

 SCF Done:  E(RB3LYP) =  -769.842195934     A.U. after    1 cycles
 Normal termination of Gaussian 16 at Sun Jul 18 18:14:44 2021.

 -----------------------------
 #p B3LYP/6-31G* geom=allcheck
 -----------------------------

 Structure from the checkpoint file:  "SET_328_BBB20_conf1.geo_120_180_180.chk"
 --------------------------------------------
 SET_328_BBB20_conf1.geo_120_180_180 geometry
 --------------------------------------------
 Charge =  1 Multiplicity = 1

 SCF Done:  E(RB3LYP) =  -769.715391132     A.U. after   14 cycles
 Normal termination of Gaussian 16 at Sun Jul 18 18:17:46 2021.
 Gaussian 16:  ES64L-G16RevA.03 25-Dec-2016

 --------------------------------------------------------
 #p mp2/aug-cc-pVDZ scf=tight maxdisk=180GB geom=allcheck
 --------------------------------------------------------

 Structure from the checkpoint file:  "SET_328_BBB20_conf1.geo_120_180_180.chk"
 --------------------------------------------
 SET_328_BBB20_conf1.geo_120_180_180 geometry
 --------------------------------------------
 Charge =  1 Multiplicity = 1

                         Standard orientation:
 ---------------------------------------------------------------------
 Center     Atomic      Atomic             Coordinates (Angstroms)
 Number     Number       Type             X           Y           Z
 ---------------------------------------------------------------------
      1          7           0       -4.519745   -2.226728    1.016364
      2          1           0       -4.242762   -2.347469    2.000706
      3          1           0       -5.224266   -2.949073    0.816932
      4          6           0       -3.343348   -2.320399    0.084421
      5          1           0       -3.736363   -2.194758   -0.925233
      6          1           0       -2.955795   -3.334649    0.178465
      7          6           0       -2.290336   -1.273136    0.425411
      8          1           0       -1.939373   -1.412874    1.453485
      9          1           0       -2.728889   -0.273068    0.360011
     10          6           0       -1.079981   -1.357407   -0.517999
     11          1           0       -1.411255   -1.288554   -1.564692
     12          1           0       -0.604657   -2.333339   -0.409783
     13          7           0       -0.065034   -0.362721   -0.169873
     14          6           0        1.294325   -0.791098   -0.274523
     15          6           0        1.721684   -1.596917   -1.337398
     16          1           0        1.019304   -1.870744   -2.116699
     17          6           0        3.043979   -2.039863   -1.398709
     18          1           0        3.364878   -2.661864   -2.227969
     19          6           0        3.949167   -1.669894   -0.403495
     20          1           0        4.979478   -2.006770   -0.447075
     21          6           0        3.519600   -0.869569    0.655554
     22          1           0        4.213726   -0.591335    1.442802
     23          6           0        2.194985   -0.434383    0.741837
     24          6           0        1.697241    0.412554    1.875168
     25          1           0        2.446968    0.445792    2.672386
     26          1           0        0.791209   -0.035852    2.296077
     27          6           0        1.393895    1.844154    1.429703
     28          1           0        2.317884    2.277069    1.025819
     29          1           0        1.148639    2.444560    2.313366
     30          6           0        0.279033    2.039937    0.415949
     31          6           0       -0.120245    3.367803    0.209999
     32          1           0        0.391324    4.140373    0.779082
     33          6           0       -1.141107    3.727391   -0.663953
     34          1           0       -1.422497    4.768767   -0.782042
     35          6           0       -1.794614    2.721825   -1.374239
     36          1           0       -2.592089    2.961527   -2.069664
     37          6           0       -1.411662    1.395340   -1.201000
     38          1           0       -1.912738    0.632681   -1.784155
     39          6           0       -0.381457    1.022535   -0.314509
     40          1           0       -4.996222   -1.317521    0.949430
 ---------------------------------------------------------------------

 SCF Done:  E(RHF) =  -764.746977474     A.U. after   16 cycles
 E2 =    -0.2712221733D+01 EUMP2 =    -0.76745919920652D+03

 The electronic state is 1-A.
 Alpha  occ. eigenvalues --  -15.89777 -15.67648 -11.47628 -11.39601 -11.39295
 Alpha  occ. eigenvalues --  -11.37351 -11.35888 -11.32936 -11.32520 -11.32397
 Alpha  occ. eigenvalues --  -11.32084 -11.32048 -11.31911 -11.31712 -11.31580
 Alpha  occ. eigenvalues --  -11.31536 -11.31527 -11.31383 -11.31296  -1.50697
 Alpha  occ. eigenvalues --   -1.36459  -1.23771  -1.23696  -1.21137  -1.16231
 Alpha  occ. eigenvalues --   -1.11128  -1.10623  -1.10227  -1.06920  -1.03367
 Alpha  occ. eigenvalues --   -0.99241  -0.96496  -0.96388  -0.93967  -0.91011
 Alpha  occ. eigenvalues --   -0.90341  -0.87321  -0.86583  -0.84329  -0.80757
 Alpha  occ. eigenvalues --   -0.78437  -0.77739  -0.74694  -0.74057  -0.73113
 Alpha  occ. eigenvalues --   -0.71877  -0.71069  -0.70050  -0.68355  -0.67680
 Alpha  occ. eigenvalues --   -0.67482  -0.66111  -0.65747  -0.63783  -0.63112
 Alpha  occ. eigenvalues --   -0.61909  -0.60797  -0.59469  -0.58684  -0.57210
 Alpha  occ. eigenvalues --   -0.56178  -0.55721  -0.55267  -0.50709  -0.41536
 Alpha  occ. eigenvalues --   -0.41032  -0.40126  -0.38076
 Alpha virt. eigenvalues --   -0.11209  -0.07626  -0.07458  -0.06129  -0.03704
 Alpha virt. eigenvalues --   -0.03555  -0.03102  -0.02813  -0.02532  -0.01740
 Alpha virt. eigenvalues --   -0.01422  -0.01109  -0.00881  -0.00245  -0.00045

 Mulliken charges:
               1
     1  N   -0.526716
     2  H    0.241611
     3  H    0.166723
     4  C    1.309790
     5  H   -0.117394
     6  H   -0.139758
     7  C    0.385409
     8  H   -0.211971
     9  H   -0.202742
    10  C    0.782009
    11  H   -0.275460
    12  H   -0.509082
    13  N   -0.348181
    14  C   -1.404737
    15  C    1.085683
    16  H   -0.715724
    17  C    0.324896
    18  H   -0.489702
    19  C    0.669449
    20  H   -0.461290
    21  C    0.654052
    22  H   -0.612772
    23  C    0.534368
    24  C    0.912708
    25  H   -0.181493
    26  H   -0.041365
    27  C    0.264707
    28  H    0.060963
    29  H   -0.022652
    30  C   -0.324213
    31  C    0.651200
    32  H   -0.741974
    33  C    0.160485
    34  H   -0.469228
    35  C    0.211565
    36  H   -0.557656
    37  C    1.025039
    38  H   -0.894320
    39  C    0.573139
    40  H    0.234635
 Sum of Mulliken charges =   1.00000

 Dipole moment (field-independent basis, Debye):
    X=            -17.6055    Y=             -9.3483    Z=              4.0086  Tot=             20.3326
 Quadrupole moment (field-independent basis, Debye-Ang):
   XX=            -15.9809   YY=            -80.8078   ZZ=           -102.8698
   XY=             41.7263   XZ=            -12.8199   YZ=             -3.9355

 Normal termination of Gaussian 16 at Sun Jul 18 19:47:50 2021.
