 Gaussian 16, Revision A.03,

 ---------------------------------------------------------------
 #p b3lyp/6-31G(d) opt freq scrf=(iefpcm,read,solvent=n-octanol)
 ---------------------------------------------------------------

 ---------------------------------------------
 SET_328_BBB288_conf1.geo_210_090_060 geometry
 ---------------------------------------------
 Symbolic Z-matrix:
 Charge = -1 Multiplicity = 1

 SCF Done:  E(RB3LYP) =  -962.943833483     A.U. after   15 cycles
 SCF Done:  E(RB3LYP) =  -962.988559628     A.U. after   12 cycles
 SCF Done:  E(RB3LYP) =  -963.009324324     A.U. after   14 cycles
 SCF Done:  E(RB3LYP) =  -963.009583084     A.U. after   12 cycles
 SCF Done:  E(RB3LYP) =  -963.011035221     A.U. after   12 cycles
 SCF Done:  E(RB3LYP) =  -963.011929442     A.U. after   11 cycles
 SCF Done:  E(RB3LYP) =  -963.012177789     A.U. after   11 cycles
 SCF Done:  E(RB3LYP) =  -963.012157836     A.U. after   12 cycles
 SCF Done:  E(RB3LYP) =  -963.012259925     A.U. after   11 cycles
 SCF Done:  E(RB3LYP) =  -963.012489776     A.U. after   11 cycles
 SCF Done:  E(RB3LYP) =  -963.012724077     A.U. after   10 cycles
 SCF Done:  E(RB3LYP) =  -963.012724480     A.U. after    9 cycles
 SCF Done:  E(RB3LYP) =  -963.012702022     A.U. after   10 cycles
 SCF Done:  E(RB3LYP) =  -963.012538957     A.U. after   12 cycles
 SCF Done:  E(RB3LYP) =  -963.012718204     A.U. after   12 cycles
 SCF Done:  E(RB3LYP) =  -963.012702156     A.U. after   10 cycles
 Optimization completed.
    -- Stationary point found.
 Normal termination of Gaussian 16 at Sun Jul 18 16:46:09 2021.

 --------------------------------------------------------------------
 #P Geom=AllCheck Guess=TCheck SCRF=Check GenChk RB3LYP/6-31G(d) Freq
 --------------------------------------------------------------------

 Structure from the checkpoint file:  "SET_328_BBB288_conf1.geo_210_090_060.chk"
 ---------------------------------------------
 SET_328_BBB288_conf1.geo_210_090_060 geometry
 ---------------------------------------------
 Charge = -1 Multiplicity = 1

 SCF Done:  E(RB3LYP) =  -963.012702156     A.U. after    1 cycles

  Exact polarizability: 240.810 -23.577 171.142   0.699  -9.839 138.684
 Approx polarizability: 292.226 -42.352 227.498  -3.135  -1.561 186.836

 ******    1 imaginary frequencies (negative Signs) ******

                      1                      2                      3
                      A                      A                      A
 Frequencies --    -23.4199                21.2114                30.8204
 Red. masses --      6.5862                11.3595                 7.1078
 Frc consts  --      0.0021                 0.0030                 0.0040
 IR Inten    --      0.5846                 3.6612                 2.6608

                      4                      5                      6
                      A                      A                      A
 Frequencies --     49.3117                78.0183                91.2426
 Red. masses --      6.3997                 5.4040                 5.6819
 Frc consts  --      0.0092                 0.0194                 0.0279
 IR Inten    --      6.8418                 6.1135                 0.0679

                      7                      8                      9
                      A                      A                      A
 Frequencies --    134.7249               150.1183               170.0823
 Red. masses --      7.6443                 4.1925                 1.0774
 Frc consts  --      0.0817                 0.0557                 0.0184
 IR Inten    --      1.5962                 2.2479                 0.2614

                     10                     11                     12
                      A                      A                      A
 Frequencies --    182.3242               197.4261               231.8458
 Red. masses --      4.4396                 7.2691                 3.5842
 Frc consts  --      0.0870                 0.1669                 0.1135
 IR Inten    --      1.7275                 1.3563                 4.3654

                     13                     14                     15
                      A                      A                      A
 Frequencies --    249.6548               278.0281               295.8740
 Red. masses --      5.6620                 4.8518                 4.5089
 Frc consts  --      0.2079                 0.2210                 0.2326
 IR Inten    --      6.5983                 8.5667                11.2664

                     16                     17                     18
                      A                      A                      A
 Frequencies --    296.5784               350.1047               387.4217
 Red. masses --      4.3947                 4.7716                 3.6619
 Frc consts  --      0.2277                 0.3446                 0.3238
 IR Inten    --      8.1785                 2.7036                 6.2174

                     19                     20                     21
                      A                      A                      A
 Frequencies --    419.4539               440.4634               456.4895
 Red. masses --      2.9358                 8.0980                 1.2582
 Frc consts  --      0.3043                 0.9257                 0.1545
 IR Inten    --      1.4924                18.8328               198.0510

                     22                     23                     24
                      A                      A                      A
 Frequencies --    481.3831               507.5097               558.2046
 Red. masses --      2.7704                 6.9476                 5.2447
 Frc consts  --      0.3782                 1.0543                 0.9628
 IR Inten    --     29.5964                14.5107                10.8661

                     25                     26                     27
                      A                      A                      A
 Frequencies --    576.9029               606.0523               626.5408
 Red. masses --     13.5173                 5.5380                 5.2666
 Frc consts  --      2.6506                 1.1985                 1.2181
 IR Inten    --     17.9612                 2.4065                18.1345

                     28                     29                     30
                      A                      A                      A
 Frequencies --    646.5808               682.4951               758.7767
 Red. masses --      5.4065                 4.1841                 7.5905
 Frc consts  --      1.3317                 1.1483                 2.5748
 IR Inten    --      4.0425                10.3077                 5.3053

                     31                     32                     33
                      A                      A                      A
 Frequencies --    760.8619               775.1882               777.8264
 Red. masses --     11.2747                 7.1290                 6.4553
 Frc consts  --      3.8456                 2.5240                 2.3011
 IR Inten    --     36.0380                28.8669                28.5143

                     34                     35                     36
                      A                      A                      A
 Frequencies --    783.9862               846.8709               884.4307
 Red. masses --      6.4521                 3.8042                 2.0628
 Frc consts  --      2.3365                 1.6075                 0.9507
 IR Inten    --     22.3451                17.5523                17.0670

                     37                     38                     39
                      A                      A                      A
 Frequencies --    890.9123               897.7160               909.4284
 Red. masses --      2.1704                 2.6459                 2.8817
 Frc consts  --      1.0150                 1.2563                 1.4042
 IR Inten    --     36.8179                66.2714                 4.6854

                     40                     41                     42
                      A                      A                      A
 Frequencies --    961.5305               983.9164              1013.1566
 Red. masses --      2.6672                 2.1518                 2.0797
 Frc consts  --      1.4529                 1.2274                 1.2578
 IR Inten    --     48.1855                18.6636                91.6204

                     43                     44                     45
                      A                      A                      A
 Frequencies --   1034.0612              1041.7508              1071.2485
 Red. masses --      2.0746                 2.0217                 1.4744
 Frc consts  --      1.3070                 1.2927                 0.9969
 IR Inten    --     57.8794                26.1384                12.0441

                     46                     47                     48
                      A                      A                      A
 Frequencies --   1077.2458              1119.2408              1131.8833
 Red. masses --      4.2327                 3.4878                 3.3493
 Frc consts  --      2.8940                 2.5742                 2.5282
 IR Inten    --    207.0939                36.8911               362.7541

                     49                     50                     51
                      A                      A                      A
 Frequencies --   1147.8182              1190.4921              1210.5921
 Red. masses --      2.7861                 2.0135                 1.7724
 Frc consts  --      2.1627                 1.6813                 1.5304
 IR Inten    --     10.8147                53.0120                82.3439

                     52                     53                     54
                      A                      A                      A
 Frequencies --   1253.6103              1258.1851              1293.4817
 Red. masses --      1.2970                 1.5954                 2.2718
 Frc consts  --      1.2010                 1.4880                 2.2394
 IR Inten    --     21.6535                39.2964               129.0398

                     55                     56                     57
                      A                      A                      A
 Frequencies --   1317.3546              1329.9147              1337.3183
 Red. masses --      4.9453                 1.5564                 5.6876
 Frc consts  --      5.0565                 1.6219                 5.9931
 IR Inten    --    148.0647                19.0571               223.5160

                     58                     59                     60
                      A                      A                      A
 Frequencies --   1348.0630              1356.9148              1365.3881
 Red. masses --      2.9845                 1.5035                 1.3392
 Frc consts  --      3.1955                 1.6310                 1.4710
 IR Inten    --    396.5484                47.9987                29.5497

                     61                     62                     63
                      A                      A                      A
 Frequencies --   1382.1760              1398.8458              1419.4473
 Red. masses --      1.4139                 1.3546                 1.9662
 Frc consts  --      1.5914                 1.5617                 2.3340
 IR Inten    --     38.0463                 2.8399                43.7829

                     64                     65                     66
                      A                      A                      A
 Frequencies --   1425.9216              1433.3611              1457.4796
 Red. masses --      1.3180                 1.3224                 1.2298
 Frc consts  --      1.5789                 1.6007                 1.5392
 IR Inten    --     17.0569                 2.9329               115.9804

                     67                     68                     69
                      A                      A                      A
 Frequencies --   1477.8893              1494.0357              1501.7326
 Red. masses --      2.2133                 1.0472                 1.1088
 Frc consts  --      2.8483                 1.3772                 1.4733
 IR Inten    --    118.8463                 4.5288                11.1986

                     70                     71                     72
                      A                      A                      A
 Frequencies --   1517.8850              1518.0219              1627.8692
 Red. masses --      1.0855                 1.1154                11.5435
 Frc consts  --      1.4735                 1.5144                18.0229
 IR Inten    --      1.4652                31.1292              1227.8021

                     73                     74                     75
                      A                      A                      A
 Frequencies --   1712.8689              1734.1395              2262.0165
 Red. masses --     10.5877                 7.5856                13.6059
 Frc consts  --     18.3020                13.4403                41.0176
 IR Inten    --    243.8949               573.7076               880.2688

                     76                     77                     78
                      A                      A                      A
 Frequencies --   3005.0746              3020.6719              3050.9503
 Red. masses --      1.0715                 1.0838                 1.0353
 Frc consts  --      5.7008                 5.8265                 5.6777
 IR Inten    --     50.9605               110.5395                75.1831

                     79                     80                     81
                      A                      A                      A
 Frequencies --   3081.9898              3093.4818              3102.1546
 Red. masses --      1.0757                 1.0738                 1.1001
 Frc consts  --      6.0199                 6.0544                 6.2373
 IR Inten    --     18.0614                36.8799                37.2620

                     82                     83                     84
                      A                      A                      A
 Frequencies --   3108.3556              3124.2851              3138.3828
 Red. masses --      1.0930                 1.1028                 1.1004
 Frc consts  --      6.2219                 6.3424                 6.3858
 IR Inten    --     60.4208                43.2908                 9.1354

                     85                     86                     87
                      A                      A                      A
 Frequencies --   3156.4485              3205.0256              3671.8386
 Red. masses --      1.0891                 1.0911                 1.0651
 Frc consts  --      6.3933                 6.6036                 8.4609
 IR Inten    --     23.0174                21.0480               196.5206

 - Thermochemistry -
 -------------------
 Temperature   298.150 Kelvin.  Pressure   1.00000 Atm.
 Atom     1 has atomic number  6 and mass  12.00000

 Molecular mass:   266.08893 amu.
 Principal axes and moments of inertia in atomic units:
                           1         2         3
     Eigenvalues --  2449.369929300.063269765.47503
           X            0.99993  -0.00084   0.01195
           Y            0.00150   0.99848  -0.05508
           Z           -0.01188   0.05509   0.99841
 This molecule is an asymmetric top.
 Rotational symmetry number  1.
 Warning -- assumption of classical behavior for rotation
           may cause significant error
 Rotational temperatures (Kelvin)      0.03536     0.00931     0.00887
 Rotational constants (GHZ):           0.73682     0.19406     0.18481
    1 imaginary frequencies ignored.
 Zero-point vibrational energy     618758.7 (Joules/Mol)
                                  147.88688 (Kcal/Mol)
 Warning -- explicit consideration of  25 degrees of freedom as
           vibrations may cause significant error
 Vibrational temperatures:     30.52    44.34    70.95   112.25   131.28
          (Kelvin)            193.84   215.99   244.71   262.32   284.05
                              333.57   359.20   400.02   425.70   426.71
                              503.72   557.41   603.50   633.73   656.79
                              692.60   730.19   803.13   830.03   871.97
                              901.45   930.29   981.96  1091.71  1094.71
                             1115.32  1119.12  1127.98  1218.46  1272.50
                             1281.82  1291.61  1308.46  1383.43  1415.64
                             1457.71  1487.78  1498.85  1541.29  1549.92
                             1610.34  1628.53  1651.45  1712.85  1741.77
                             1803.67  1810.25  1861.03  1895.38  1913.45
                             1924.10  1939.56  1952.30  1964.49  1988.64
                             2012.63  2042.27  2051.58  2062.29  2096.99
                             2126.35  2149.58  2160.66  2183.90  2184.09
                             2342.14  2464.44  2495.04  3254.54  4323.63
                             4346.07  4389.64  4434.30  4450.83  4463.31
                             4472.23  4495.15  4515.43  4541.43  4611.32
                             5282.96

 Zero-point correction=                           0.235673 (Hartree/Particle)
 Thermal correction to Energy=                    0.252118
 Thermal correction to Enthalpy=                  0.253062
 Thermal correction to Gibbs Free Energy=         0.189723
 Sum of electronic and zero-point Energies=           -962.777029
 Sum of electronic and thermal Energies=              -962.760584
 Sum of electronic and thermal Enthalpies=            -962.759640
 Sum of electronic and thermal Free Energies=         -962.822980

                     E (Thermal)             CV                S
                      KCal/Mol        Cal/Mol-Kelvin    Cal/Mol-Kelvin
 Total                  158.206             61.697            133.309
 Electronic               0.000              0.000              0.000
 Translational            0.889              2.981             42.635
 Rotational               0.889              2.981             33.764
 Vibrational            156.429             55.735             56.911
 Vibration     1          0.593              1.985              6.517
 Vibration     2          0.594              1.984              5.776
 Vibration     3          0.595              1.978              4.845
 Vibration     4          0.599              1.964              3.940
 Vibration     5          0.602              1.955              3.633
 Vibration     6          0.613              1.919              2.877
 Vibration     7          0.618              1.903              2.671
 Vibration     8          0.625              1.879              2.435
 Vibration     9          0.630              1.864              2.304
 Vibration    10          0.637              1.843              2.157
 Vibration    11          0.653              1.792              1.865
 Vibration    12          0.662              1.763              1.733
 Vibration    13          0.679              1.714              1.546
 Vibration    14          0.690              1.681              1.440
 Vibration    15          0.690              1.680              1.436
 Vibration    16          0.727              1.575              1.166
 Vibration    17          0.756              1.497              1.010
 Vibration    18          0.782              1.428              0.894
 Vibration    19          0.800              1.382              0.825
 Vibration    20          0.815              1.347              0.776
 Vibration    21          0.838              1.291              0.706
 Vibration    22          0.863              1.233              0.640
 Vibration    23          0.914              1.122              0.527
 Vibration    24          0.933              1.081              0.491
 Vibration    25          0.965              1.019              0.439

                           ! Non-Optimized Parameters !
 Normal termination of Gaussian 16 at Sun Jul 18 17:18:29 2021.

 ----------------------------------------------------------------------
 #p b3lyp/6-31G(d) scrf=(iefpcm,read,solvent=n-octanol) geom=allcheck g
 uess=read
 ----------------------------------------------------------------------

 Structure from the checkpoint file:  "SET_328_BBB288_conf1.geo_210_090_060.chk"
 ---------------------------------------------
 SET_328_BBB288_conf1.geo_210_090_060 geometry
 ---------------------------------------------
 Charge = -1 Multiplicity = 1

 SCF Done:  E(RB3LYP) =  -963.012702156     A.U. after    1 cycles
 Normal termination of Gaussian 16 at Sun Jul 18 17:19:16 2021.

 -----------------------------
 #p B3LYP/6-31G* geom=allcheck
 -----------------------------

 Structure from the checkpoint file:  "SET_328_BBB288_conf1.geo_210_090_060.chk"
 ---------------------------------------------
 SET_328_BBB288_conf1.geo_210_090_060 geometry
 ---------------------------------------------
 Charge = -1 Multiplicity = 1

 SCF Done:  E(RB3LYP) =  -962.918459537     A.U. after   17 cycles
 Normal termination of Gaussian 16 at Sun Jul 18 17:21:49 2021.
 Gaussian 16:  ES64L-G16RevA.03 25-Dec-2016

 --------------------------------------------------------
 #p mp2/aug-cc-pVDZ scf=tight maxdisk=180GB geom=allcheck
 --------------------------------------------------------

 Structure from the checkpoint file:  "SET_328_BBB288_conf1.geo_210_090_060.chk"
 ---------------------------------------------
 SET_328_BBB288_conf1.geo_210_090_060 geometry
 ---------------------------------------------
 Charge = -1 Multiplicity = 1

                         Standard orientation:
 ---------------------------------------------------------------------
 Center     Atomic      Atomic             Coordinates (Angstroms)
 Number     Number       Type             X           Y           Z
 ---------------------------------------------------------------------
      1          6           0       -3.995585    1.605840   -1.456954
      2          1           0       -3.353725    2.312267   -1.992425
      3          1           0       -4.681396    2.176389   -0.820795
      4          1           0       -4.622416    1.085480   -2.188622
      5          6           0       -3.187338    0.635944   -0.650712
      6          6           0       -3.884329   -0.394516    0.146696
      7          7           0       -3.147185   -1.263429    0.911645
      8          6           0       -1.800784   -1.222751    0.951044
      9          8           0       -1.096656   -1.991805    1.630165
     10          8           0       -5.131689   -0.452686    0.114948
     11          6           0       -1.840013    0.659624   -0.605504
     12          1           0       -1.247185    1.395784   -1.139682
     13          7           0       -1.122292   -0.242954    0.147690
     14          6           0        0.315137   -0.172514    0.188365
     15          8           0        0.733571    1.139584    0.613492
     16          6           0        1.936954    1.530575   -0.051428
     17          6           0        2.976564    2.018435    0.962109
     18          8           0        3.276673    1.096377    1.989360
     19          1           0        3.616544    0.297252    1.548225
     20          1           0        2.575760    2.907808    1.456801
     21          1           0        3.874557    2.329313    0.405636
     22          1           0        1.712327    2.378025   -0.715220
     23          1           0        0.614453   -0.920880    0.921884
     24          6           0        1.019527   -0.378221   -1.158772
     25          1           0        0.455186    0.116524   -1.955006
     26          1           0        1.132049   -1.432555   -1.423080
     27          6           0        2.348016    0.348237   -0.954676
     28          1           0        2.791624    0.704480   -1.889592
     29          7           0        3.349690   -0.506697   -0.249843
     30          7           0        3.869498   -1.390278   -0.935521
     31          7           0        4.414308   -2.234580   -1.475806
 ---------------------------------------------------------------------

 SCF Done:  E(RHF) =  -957.451563295     A.U. after   19 cycles
 E2 =    -0.3054730780D+01 EUMP2 =    -0.96050629407555D+03

 The electronic state is 1-A.
 Alpha  occ. eigenvalues --  -20.47845 -20.47767 -20.35545 -20.35106 -15.73999
 Alpha  occ. eigenvalues --  -15.62498 -15.56091 -15.47309 -15.36542 -11.23020
 Alpha  occ. eigenvalues --  -11.22226 -11.22096 -11.21939 -11.20943 -11.18190
 Alpha  occ. eigenvalues --  -11.16510 -11.16375 -11.11226 -11.10212  -1.45024
 Alpha  occ. eigenvalues --   -1.30656  -1.27345  -1.23780  -1.22478  -1.18710
 Alpha  occ. eigenvalues --   -1.12807  -1.01738  -1.01049  -0.95424  -0.92848
 Alpha  occ. eigenvalues --   -0.84766  -0.81736  -0.77082  -0.73446  -0.71666
 Alpha  occ. eigenvalues --   -0.68922  -0.66565  -0.64806  -0.63700  -0.62078
 Alpha  occ. eigenvalues --   -0.61331  -0.59736  -0.58273  -0.56027  -0.54677
 Alpha  occ. eigenvalues --   -0.51614  -0.51243  -0.50471  -0.49282  -0.46792
 Alpha  occ. eigenvalues --   -0.46395  -0.45911  -0.44366  -0.44063  -0.43501
 Alpha  occ. eigenvalues --   -0.42688  -0.41795  -0.40436  -0.40141  -0.37718
 Alpha  occ. eigenvalues --   -0.36091  -0.35773  -0.34130  -0.32454  -0.31606
 Alpha  occ. eigenvalues --   -0.28688  -0.25794  -0.23276  -0.19264  -0.18401
 Alpha virt. eigenvalues --    0.08603   0.10312   0.10474   0.11819   0.12298
 Alpha virt. eigenvalues --    0.13051   0.13294   0.13741   0.14697   0.15245
 Alpha virt. eigenvalues --    0.16211   0.16602   0.16894   0.17702   0.18411

 Mulliken charges:
               1
     1  C    0.487870
     2  H   -0.172032
     3  H    0.068089
     4  H    0.068884
     5  C    0.206197
     6  C    0.658007
     7  N   -0.856011
     8  C    1.041762
     9  O   -0.923391
    10  O   -1.055627
    11  C    1.116443
    12  H   -0.670913
    13  N   -0.797165
    14  C    1.060248
    15  O   -1.182995
    16  C    0.568231
    17  C    1.287481
    18  O   -0.698596
    19  H    0.217541
    20  H   -0.105633
    21  H   -0.094281
    22  H   -0.266428
    23  H   -0.472776
    24  C    0.416755
    25  H   -0.222778
    26  H   -0.172684
    27  C    0.566075
    28  H   -0.257739
    29  N   -0.827393
    30  N    0.366921
    31  N   -0.354062
 Sum of Mulliken charges =  -1.00000

 Dipole moment (field-independent basis, Debye):
    X=             15.2987    Y=              6.8721    Z=             -8.7650  Tot=             18.9236
 Quadrupole moment (field-independent basis, Debye-Ang):
   XX=           -196.7792   YY=           -128.4188   ZZ=           -128.6260
   XY=            -14.6350   XZ=              3.1189   YZ=              4.8585

 Normal termination of Gaussian 16 at Sun Jul 18 18:23:51 2021.
