 Gaussian 16, Revision A.03,

 ---------------------------------------------------------------
 #p b3lyp/6-31G(d) opt freq scrf=(iefpcm,read,solvent=n-octanol)
 ---------------------------------------------------------------

 --------------------------------------------
 SET_328_BBB30_conf1.geo_105_180_195 geometry
 --------------------------------------------
 Symbolic Z-matrix:
 Charge =  1 Multiplicity = 1

 SCF Done:  E(RB3LYP) =  -445.288386822     A.U. after   12 cycles
 SCF Done:  E(RB3LYP) =  -445.312324552     A.U. after   11 cycles
 SCF Done:  E(RB3LYP) =  -445.308200539     A.U. after   12 cycles
 SCF Done:  E(RB3LYP) =  -445.320799296     A.U. after   10 cycles
 SCF Done:  E(RB3LYP) =  -445.320929611     A.U. after   10 cycles
 SCF Done:  E(RB3LYP) =  -445.321074205     A.U. after    9 cycles
 SCF Done:  E(RB3LYP) =  -445.320963615     A.U. after   10 cycles
 SCF Done:  E(RB3LYP) =  -445.321284619     A.U. after   10 cycles
 SCF Done:  E(RB3LYP) =  -445.320613350     A.U. after   11 cycles
 SCF Done:  E(RB3LYP) =  -445.321003864     A.U. after   12 cycles
 SCF Done:  E(RB3LYP) =  -445.321520357     A.U. after    7 cycles
 SCF Done:  E(RB3LYP) =  -445.321511587     A.U. after    8 cycles
 SCF Done:  E(RB3LYP) =  -445.321511462     A.U. after    7 cycles
 SCF Done:  E(RB3LYP) =  -445.321519942     A.U. after    8 cycles
 SCF Done:  E(RB3LYP) =  -445.321511639     A.U. after    8 cycles
 SCF Done:  E(RB3LYP) =  -445.321519847     A.U. after    8 cycles
 Optimization completed.
    -- Stationary point found.
 Normal termination of Gaussian 16 at Sun Jul 18 15:34:21 2021.

 --------------------------------------------------------------------
 #P Geom=AllCheck Guess=TCheck SCRF=Check GenChk RB3LYP/6-31G(d) Freq
 --------------------------------------------------------------------

 Structure from the checkpoint file:  "SET_328_BBB30_conf1.geo_105_180_195.chk"
 --------------------------------------------
 SET_328_BBB30_conf1.geo_105_180_195 geometry
 --------------------------------------------
 Charge =  1 Multiplicity = 1

 SCF Done:  E(RB3LYP) =  -445.321519847     A.U. after    1 cycles

  Exact polarizability: 163.257   4.274 132.299 -18.891   9.766  85.103
 Approx polarizability: 183.473   6.004 174.369 -26.125  15.800 105.510

                      1                      2                      3
                      A                      A                      A
 Frequencies --     76.4466                88.9614               101.9016
 Red. masses --      3.5380                 3.4576                 3.0583
 Frc consts  --      0.0122                 0.0161                 0.0187
 IR Inten    --      0.8206                 0.5876                 0.2759

                      4                      5                      6
                      A                      A                      A
 Frequencies --    180.7820               223.4362               236.5679
 Red. masses --      1.6318                 1.1143                 3.3632
 Frc consts  --      0.0314                 0.0328                 0.1109
 IR Inten    --      5.4917                 1.5177                 3.6189

                      7                      8                      9
                      A                      A                      A
 Frequencies --    263.2982               289.9006               343.5629
 Red. masses --      3.2635                 2.1422                 1.6017
 Frc consts  --      0.1333                 0.1061                 0.1114
 IR Inten    --      9.3358                 6.0126                 0.6581

                     10                     11                     12
                      A                      A                      A
 Frequencies --    367.3270               419.2705               425.9227
 Red. masses --      2.0118                 2.9410                 2.6765
 Frc consts  --      0.1599                 0.3046                 0.2861
 IR Inten    --      0.6713                 0.1391                 2.0720

                     13                     14                     15
                      A                      A                      A
 Frequencies --    501.9339               521.6363               596.0118
 Red. masses --      2.1630                 2.9466                 4.7668
 Frc consts  --      0.3211                 0.4724                 0.9977
 IR Inten    --      9.3480                 5.1855                 1.8109

                     16                     17                     18
                      A                      A                      A
 Frequencies --    634.7935               716.4964               761.2111
 Red. masses --      6.2968                 2.0349                 1.6821
 Frc consts  --      1.4950                 0.6155                 0.5743
 IR Inten    --      0.0183                27.6059                40.6214

                     19                     20                     21
                      A                      A                      A
 Frequencies --    804.2373               839.8188               863.4647
 Red. masses --      3.5837                 1.9718                 1.2529
 Frc consts  --      1.3657                 0.8194                 0.5504
 IR Inten    --      2.2330                17.7063                 0.0435

                     22                     23                     24
                      A                      A                      A
 Frequencies --    868.5504               894.7510               925.3617
 Red. masses --      1.4461                 1.8014                 1.5925
 Frc consts  --      0.6428                 0.8497                 0.8034
 IR Inten    --      7.8192                 5.9372                 6.6605

                     25                     26                     27
                      A                      A                      A
 Frequencies --    938.3830               976.2549              1007.5661
 Red. masses --      1.4632                 1.3544                 1.7048
 Frc consts  --      0.7591                 0.7606                 1.0197
 IR Inten    --      1.6178                 0.0586                 2.1300

                     28                     29                     30
                      A                      A                      A
 Frequencies --   1008.3836              1018.2441              1046.8782
 Red. masses --      2.0047                 6.1163                 1.6051
 Frc consts  --      1.2010                 3.7363                 1.0364
 IR Inten    --      5.7629                 1.5135                37.0760

                     31                     32                     33
                      A                      A                      A
 Frequencies --   1058.1298              1081.7144              1096.2386
 Red. masses --      2.1905                 1.8687                 1.4769
 Frc consts  --      1.4450                 1.2883                 1.0457
 IR Inten    --      0.3798                17.5619                 6.7743

                     34                     35                     36
                      A                      A                      A
 Frequencies --   1133.7144              1172.0817              1191.7232
 Red. masses --      1.4906                 1.4839                 1.0972
 Frc consts  --      1.1288                 1.2010                 0.9181
 IR Inten    --     11.5684                 6.2957                 0.0306

                     37                     38                     39
                      A                      A                      A
 Frequencies --   1209.5412              1218.2051              1234.0897
 Red. masses --      1.1414                 1.5617                 2.6000
 Frc consts  --      0.9838                 1.3655                 2.3330
 IR Inten    --      0.8514                29.3953                 0.3945

                     40                     41                     42
                      A                      A                      A
 Frequencies --   1266.3395              1342.8891              1359.8508
 Red. masses --      1.5867                 1.2733                 1.8627
 Frc consts  --      1.4991                 1.3529                 2.0294
 IR Inten    --      0.4984                 1.0424                 1.2339

                     43                     44                     45
                      A                      A                      A
 Frequencies --   1365.1536              1374.3289              1385.1952
 Red. masses --      2.3667                 1.3083                 1.4638
 Frc consts  --      2.5987                 1.4560                 1.6549
 IR Inten    --      0.9026                 6.4242                 1.0385

                     46                     47                     48
                      A                      A                      A
 Frequencies --   1441.2364              1447.7808              1463.6563
 Red. masses --      1.1615                 1.2123                 1.1656
 Frc consts  --      1.4215                 1.4971                 1.4712
 IR Inten    --     49.3733                16.0316                 5.5413

                     49                     50                     51
                      A                      A                      A
 Frequencies --   1499.2601              1504.8323              1513.6231
 Red. masses --      1.7491                 1.2157                 1.0877
 Frc consts  --      2.3164                 1.6220                 1.4682
 IR Inten    --     16.4009                29.4220                 8.2764

                     52                     53                     54
                      A                      A                      A
 Frequencies --   1514.8506              1531.8638              1533.9775
 Red. masses --      1.0960                 1.0917                 1.0968
 Frc consts  --      1.4818                 1.5094                 1.5207
 IR Inten    --      7.3636                47.4368                47.6993

                     55                     56                     57
                      A                      A                      A
 Frequencies --   1545.8493              1548.0490              1647.2770
 Red. masses --      2.2454                 1.0579                 5.4963
 Frc consts  --      3.1615                 1.4937                 8.7873
 IR Inten    --     11.1223                 1.7793                 2.1723

                     58                     59                     60
                      A                      A                      A
 Frequencies --   1665.3761              1671.3596              3072.3393
 Red. masses --      5.7026                 1.0754                 1.0589
 Frc consts  --      9.3186                 1.7699                 5.8890
 IR Inten    --      2.4604               114.9941                35.9278

                     61                     62                     63
                      A                      A                      A
 Frequencies --   3092.0526              3110.7442              3126.1314
 Red. masses --      1.0371                 1.0981                 1.0808
 Frc consts  --      5.8419                 6.2606                 6.2230
 IR Inten    --      7.7025                 7.7733                21.7550

                     64                     65                     66
                      A                      A                      A
 Frequencies --   3127.8791              3165.5532              3170.1224
 Red. masses --      1.0415                 1.1020                 1.1019
 Frc consts  --      6.0037                 6.5064                 6.5247
 IR Inten    --      8.2798                20.6462                10.4607

                     67                     68                     69
                      A                      A                      A
 Frequencies --   3192.7192              3201.6625              3211.6805
 Red. masses --      1.0881                 1.0869                 1.0899
 Frc consts  --      6.5349                 6.5644                 6.6238
 IR Inten    --     15.3646                 7.1107                 7.8387

                     70                     71                     72
                      A                      A                      A
 Frequencies --   3218.7187              3219.9173              3231.1577
 Red. masses --      1.0940                 1.1094                 1.0978
 Frc consts  --      6.6776                 6.7769                 6.7526
 IR Inten    --     47.5356                 3.8287                23.8975

                     73                     74                     75
                      A                      A                      A
 Frequencies --   3237.3334              3377.2687              3426.4485
 Red. masses --      1.1087                 1.0580                 1.0905
 Frc consts  --      6.8461                 7.1101                 7.5435
 IR Inten    --      4.0493               125.1851               155.0673

 - Thermochemistry -
 -------------------
 Temperature   298.150 Kelvin.  Pressure   1.00000 Atm.
 Atom     1 has atomic number  6 and mass  12.00000

 Molecular mass:   150.12827 amu.
 Principal axes and moments of inertia in atomic units:
                           1         2         3
     Eigenvalues --   638.042253570.331853772.11075
           X            1.00000   0.00180   0.00084
           Y           -0.00179   1.00000  -0.00252
           Z           -0.00085   0.00252   1.00000
 This molecule is an asymmetric top.
 Rotational symmetry number  1.
 Warning -- assumption of classical behavior for rotation
           may cause significant error
 Rotational temperatures (Kelvin)      0.13575     0.02426     0.02296
 Rotational constants (GHZ):           2.82856     0.50548     0.47844
 Zero-point vibrational energy     652809.8 (Joules/Mol)
                                  156.02528 (Kcal/Mol)
 Warning -- explicit consideration of  15 degrees of freedom as
           vibrations may cause significant error
 Vibrational temperatures:    109.99   128.00   146.61   260.10   321.47
          (Kelvin)            340.37   378.83   417.10   494.31   528.50
                              603.24   612.81   722.17   750.52   857.53
                              913.33  1030.88  1095.21  1157.12  1208.31
                             1242.33  1249.65  1287.35  1331.39  1350.12
                             1404.61  1449.66  1450.84  1465.03  1506.22
                             1522.41  1556.35  1577.24  1631.16  1686.36
                             1714.62  1740.26  1752.73  1775.58  1821.98
                             1932.12  1956.52  1964.15  1977.35  1992.99
                             2073.62  2083.03  2105.88  2157.10  2165.12
                             2177.77  2179.53  2204.01  2207.05  2224.13
                             2227.30  2370.06  2396.10  2404.71  4420.41
                             4448.77  4475.67  4497.81  4500.32  4554.53
                             4561.10  4593.61  4606.48  4620.89  4631.02
                             4632.74  4648.92  4657.80  4859.14  4929.90

 Zero-point correction=                           0.248642 (Hartree/Particle)
 Thermal correction to Energy=                    0.259382
 Thermal correction to Enthalpy=                  0.260326
 Thermal correction to Gibbs Free Energy=         0.212477
 Sum of electronic and zero-point Energies=           -445.072878
 Sum of electronic and thermal Energies=              -445.062138
 Sum of electronic and thermal Enthalpies=            -445.061194
 Sum of electronic and thermal Free Energies=         -445.109043

                     E (Thermal)             CV                S
                      KCal/Mol        Cal/Mol-Kelvin    Cal/Mol-Kelvin
 Total                  162.765             42.096            100.707
 Electronic               0.000              0.000              0.000
 Translational            0.889              2.981             40.929
 Rotational               0.889              2.981             30.531
 Vibrational            160.987             36.134             29.247
 Vibration     1          0.599              1.965              3.980
 Vibration     2          0.602              1.957              3.683
 Vibration     3          0.604              1.948              3.418
 Vibration     4          0.630              1.866              2.320
 Vibration     5          0.649              1.805              1.931
 Vibration     6          0.655              1.785              1.829
 Vibration     7          0.670              1.740              1.640
 Vibration     8          0.686              1.693              1.475
 Vibration     9          0.722              1.588              1.196
 Vibration    10          0.740              1.539              1.091
 Vibration    11          0.782              1.428              0.894
 Vibration    12          0.788              1.414              0.872
 Vibration    13          0.857              1.246              0.653
 Vibration    14          0.877              1.202              0.606
 Vibration    15          0.954              1.040              0.457

                           ! Non-Optimized Parameters !
 Normal termination of Gaussian 16 at Sun Jul 18 15:48:37 2021.

 ----------------------------------------------------------------------
 #p b3lyp/6-31G(d) scrf=(iefpcm,read,solvent=n-octanol) geom=allcheck g
 uess=read
 ----------------------------------------------------------------------

 Structure from the checkpoint file:  "SET_328_BBB30_conf1.geo_105_180_195.chk"
 --------------------------------------------
 SET_328_BBB30_conf1.geo_105_180_195 geometry
 --------------------------------------------
 Charge =  1 Multiplicity = 1

 SCF Done:  E(RB3LYP) =  -445.325613911     A.U. after    1 cycles
 Normal termination of Gaussian 16 at Sun Jul 18 15:49:09 2021.

 -----------------------------
 #p B3LYP/6-31G* geom=allcheck
 -----------------------------

 Structure from the checkpoint file:  "SET_328_BBB30_conf1.geo_105_180_195.chk"
 --------------------------------------------
 SET_328_BBB30_conf1.geo_105_180_195 geometry
 --------------------------------------------
 Charge =  1 Multiplicity = 1

 SCF Done:  E(RB3LYP) =  -445.226007693     A.U. after   13 cycles
 Normal termination of Gaussian 16 at Sun Jul 18 15:50:21 2021.
 Gaussian 16:  ES64L-G16RevA.03 25-Dec-2016

 --------------------------------------------------------
 #p mp2/aug-cc-pVDZ scf=tight maxdisk=180GB geom=allcheck
 --------------------------------------------------------

 Structure from the checkpoint file:  "SET_328_BBB30_conf1.geo_105_180_195.chk"
 --------------------------------------------
 SET_328_BBB30_conf1.geo_105_180_195 geometry
 --------------------------------------------
 Charge =  1 Multiplicity = 1

                         Standard orientation:
 ---------------------------------------------------------------------
 Center     Atomic      Atomic             Coordinates (Angstroms)
 Number     Number       Type             X           Y           Z
 ---------------------------------------------------------------------
      1          6           0       -4.075760   -0.465343   -0.418908
      2          1           0       -3.835243   -1.365107   -0.982619
      3          1           0       -4.186914    0.382881   -1.088441
      4          1           0       -4.988397   -0.613367    0.154755
      5          7           0       -2.953300   -0.190724    0.538609
      6          1           0       -2.918714   -0.952078    1.233992
      7          6           0       -1.575154   -0.045341   -0.108079
      8          6           0       -1.570375    1.142016   -1.063925
      9          1           0       -2.257643    1.004603   -1.900708
     10          1           0       -0.566431    1.258899   -1.477379
     11          1           0       -1.829977    2.070711   -0.545949
     12          1           0       -1.432455   -0.977729   -0.658864
     13          6           0       -0.522027    0.062486    1.012988
     14          1           0       -0.693188   -0.736922    1.741861
     15          1           0       -0.657650    1.011052    1.542130
     16          6           0        0.900450   -0.026095    0.499796
     17          6           0        1.718782    1.108948    0.477451
     18          1           0        1.323806    2.054903    0.833873
     19          6           0        3.033911    1.030633    0.015473
     20          1           0        3.656818    1.918795    0.009839
     21          6           0        3.545371   -0.187411   -0.431796
     22          1           0        4.567693   -0.251477   -0.787856
     23          6           0        2.737682   -1.326095   -0.412056
     24          1           0        3.131524   -2.278560   -0.751186
     25          6           0        1.426104   -1.245566    0.052605
     26          1           0        0.811269   -2.140499    0.078619
     27          1           0       -3.165293    0.659578    1.086377
 ---------------------------------------------------------------------

 SCF Done:  E(RHF) =  -442.292146704     A.U. after   15 cycles
 E2 =    -0.1585370868D+01 EUMP2 =    -0.44387751757205D+03

 The electronic state is 1-A.
 Alpha  occ. eigenvalues --  -15.87237 -11.46473 -11.46350 -11.39495 -11.38510
 Alpha  occ. eigenvalues --  -11.36680 -11.35181 -11.35025 -11.34605 -11.34505
 Alpha  occ. eigenvalues --  -11.34226  -1.49021  -1.27556  -1.23069  -1.15050
 Alpha  occ. eigenvalues --   -1.13922  -1.12361  -1.07320  -1.00460  -0.94357
 Alpha  occ. eigenvalues --   -0.93742  -0.91511  -0.85308  -0.83281  -0.79969
 Alpha  occ. eigenvalues --   -0.78784  -0.75084  -0.74733  -0.74051  -0.73467
 Alpha  occ. eigenvalues --   -0.70557  -0.69374  -0.68862  -0.67943  -0.66325
 Alpha  occ. eigenvalues --   -0.65462  -0.60171  -0.60118  -0.59702  -0.44237
 Alpha  occ. eigenvalues --   -0.44019
 Alpha virt. eigenvalues --   -0.09375  -0.07188  -0.06570  -0.05402  -0.03961
 Alpha virt. eigenvalues --   -0.03575  -0.03468  -0.03432  -0.03175  -0.01768
 Alpha virt. eigenvalues --   -0.01325  -0.00660  -0.00403   0.00044   0.00408

 Mulliken charges:
               1
     1  C    0.816507
     2  H   -0.071442
     3  H   -0.113771
     4  H   -0.131421
     5  N   -0.577605
     6  H    0.200654
     7  C   -0.095631
     8  C    0.758595
     9  H   -0.119249
    10  H   -0.005437
    11  H   -0.028047
    12  H   -0.421507
    13  C    0.730556
    14  H   -0.202453
    15  H   -0.212317
    16  C    1.099680
    17  C    0.447014
    18  H   -0.669262
    19  C    0.228145
    20  H   -0.439338
    21  C    0.668287
    22  H   -0.422316
    23  C    0.122950
    24  H   -0.452139
    25  C    0.375620
    26  H   -0.705085
    27  H    0.219013
 Sum of Mulliken charges =   1.00000

 Dipole moment (field-independent basis, Debye):
    X=            -10.9607    Y=             -0.5319    Z=              1.0214  Tot=             11.0210
 Quadrupole moment (field-independent basis, Debye-Ang):
   XX=            -13.0694   YY=            -57.8826   ZZ=            -64.3669
   XY=              3.3326   XZ=             -6.4175   YZ=              1.0859

 Normal termination of Gaussian 16 at Sun Jul 18 16:04:01 2021.
