 Gaussian 16, Revision A.03,

 ---------------------------------------------------------------
 #p b3lyp/6-31G(d) opt freq scrf=(iefpcm,read,solvent=n-octanol)
 ---------------------------------------------------------------

 ---------------------------------------
 SET_328_BBB2_conf1.geo_240_195 geometry
 ---------------------------------------
 Symbolic Z-matrix:
 Charge =  1 Multiplicity = 1

 SCF Done:  E(RB3LYP) =  -1633.62458660     A.U. after   13 cycles
 SCF Done:  E(RB3LYP) =  -1633.65116762     A.U. after   11 cycles
 SCF Done:  E(RB3LYP) =  -1633.65733484     A.U. after   12 cycles
 SCF Done:  E(RB3LYP) =  -1633.66963324     A.U. after   12 cycles
 SCF Done:  E(RB3LYP) =  -1633.67091974     A.U. after   11 cycles
 SCF Done:  E(RB3LYP) =  -1633.66890298     A.U. after   11 cycles
 SCF Done:  E(RB3LYP) =  -1633.67153850     A.U. after   10 cycles
 SCF Done:  E(RB3LYP) =  -1633.67161219     A.U. after    9 cycles
 SCF Done:  E(RB3LYP) =  -1633.67128355     A.U. after   11 cycles
 SCF Done:  E(RB3LYP) =  -1633.67170712     A.U. after   11 cycles
 SCF Done:  E(RB3LYP) =  -1633.67177048     A.U. after    1 cycles
 SCF Done:  E(RB3LYP) =  -1633.67175152     A.U. after    9 cycles
 SCF Done:  E(RB3LYP) =  -1633.67176979     A.U. after    9 cycles
 SCF Done:  E(RB3LYP) =  -1633.67175879     A.U. after    9 cycles
 SCF Done:  E(RB3LYP) =  -1633.67175681     A.U. after    7 cycles
 SCF Done:  E(RB3LYP) =  -1633.67175681     A.U. after    7 cycles
 Optimization completed.
    -- Stationary point found.
 Normal termination of Gaussian 16 at Mon Jul 12 15:38:19 2021.

 --------------------------------------------------------------------
 #P Geom=AllCheck Guess=TCheck SCRF=Check GenChk RB3LYP/6-31G(d) Freq
 --------------------------------------------------------------------

 Structure from the checkpoint file:  "SET_328_BBB2_conf1.geo_240_195.chk"
 ---------------------------------------
 SET_328_BBB2_conf1.geo_240_195 geometry
 ---------------------------------------
 Charge =  1 Multiplicity = 1

 SCF Done:  E(RB3LYP) =  -1633.67175681     A.U. after    1 cycles

  Exact polarizability: 315.539   2.153 219.172 -20.895  18.491 189.432
 Approx polarizability: 359.438   4.023 272.740 -28.526  32.281 258.069

                      1                      2                      3
                      A                      A                      A
 Frequencies --      9.9460                39.6921                49.2522
 Red. masses --      5.5962                 5.3777                 6.4012
 Frc consts  --      0.0003                 0.0050                 0.0091
 IR Inten    --      0.6578                 2.9907                 0.6265

                      4                      5                      6
                      A                      A                      A
 Frequencies --     91.4598               113.3369               125.4458
 Red. masses --      4.1355                 3.6018                 4.6175
 Frc consts  --      0.0204                 0.0273                 0.0428
 IR Inten    --      3.4222                 3.2265                 0.1344

                      7                      8                      9
                      A                      A                      A
 Frequencies --    135.3881               173.0538               195.2438
 Red. masses --      2.4976                 4.1118                 1.3448
 Frc consts  --      0.0270                 0.0726                 0.0302
 IR Inten    --      3.3827                 1.5760                 0.4229

                     10                     11                     12
                      A                      A                      A
 Frequencies --    198.1804               208.0765               214.7942
 Red. masses --     12.0376                 5.4459                 3.7148
 Frc consts  --      0.2786                 0.1389                 0.1010
 IR Inten    --      0.5888                 0.7666                 5.6201

                     13                     14                     15
                      A                      A                      A
 Frequencies --    233.2930               270.9977               306.4537
 Red. masses --      2.3860                 3.6468                 4.0355
 Frc consts  --      0.0765                 0.1578                 0.2233
 IR Inten    --      0.9460                 7.3865                 8.5334

                     16                     17                     18
                      A                      A                      A
 Frequencies --    346.6445               365.5048               397.8005
 Red. masses --      5.1636                 4.9762                 3.5022
 Frc consts  --      0.3656                 0.3917                 0.3265
 IR Inten    --      2.6367                 3.1970                 4.5323

                     19                     20                     21
                      A                      A                      A
 Frequencies --    422.3185               444.6910               458.8478
 Red. masses --      4.7214                 3.5205                 4.9963
 Frc consts  --      0.4961                 0.4102                 0.6198
 IR Inten    --      0.2947                 1.8666                 7.8869

                     22                     23                     24
                      A                      A                      A
 Frequencies --    462.5093               474.3842               484.2683
 Red. masses --      4.8832                 3.2027                 3.5173
 Frc consts  --      0.6155                 0.4246                 0.4860
 IR Inten    --      3.9754                 2.4337                 2.0501

                     25                     26                     27
                      A                      A                      A
 Frequencies --    524.9233               548.1876               597.3188
 Red. masses --      4.7670                 3.5676                 4.0048
 Frc consts  --      0.7739                 0.6317                 0.8419
 IR Inten    --     13.0337                16.9858                 7.1613

                     28                     29                     30
                      A                      A                      A
 Frequencies --    629.9375               631.5972               687.9596
 Red. masses --      3.6188                 4.5118                 6.8500
 Frc consts  --      0.8461                 1.0604                 1.9101
 IR Inten    --      6.9037                 1.0925                14.1960

                     31                     32                     33
                      A                      A                      A
 Frequencies --    705.1207               717.0280               736.8504
 Red. masses --      4.2697                 3.6340                 3.9819
 Frc consts  --      1.2508                 1.1008                 1.2738
 IR Inten    --      8.1118                 5.0188                20.3517

                     34                     35                     36
                      A                      A                      A
 Frequencies --    780.7092               792.8506               809.2463
 Red. masses --      1.3396                 2.7560                 2.4299
 Frc consts  --      0.4811                 1.0207                 0.9376
 IR Inten    --     41.5099                 6.0123                21.1326

                     37                     38                     39
                      A                      A                      A
 Frequencies --    829.1496               837.4179               878.7973
 Red. masses --      1.7711                 1.4176                 2.1729
 Frc consts  --      0.7174                 0.5857                 0.9887
 IR Inten    --      5.0315                29.6029                22.2726

                     40                     41                     42
                      A                      A                      A
 Frequencies --    893.3592               899.9829               903.4242
 Red. masses --      1.7770                 2.1777                 1.3079
 Frc consts  --      0.8356                 1.0392                 0.6289
 IR Inten    --     11.7485                 7.9730                 0.6711

                     43                     44                     45
                      A                      A                      A
 Frequencies --    954.1994               965.5515               972.0164
 Red. masses --      2.2335                 1.4621                 2.5700
 Frc consts  --      1.1981                 0.8031                 1.4306
 IR Inten    --     16.0388                 2.5468                32.8822

                     46                     47                     48
                      A                      A                      A
 Frequencies --    976.2058              1008.7461              1015.1430
 Red. masses --      1.4101                 1.2968                 4.2738
 Frc consts  --      0.7917                 0.7775                 2.5949
 IR Inten    --      5.5236                 1.0358                26.4764

                     49                     50                     51
                      A                      A                      A
 Frequencies --   1027.9123              1041.2670              1062.8143
 Red. masses --      2.2920                 5.0302                 1.8011
 Frc consts  --      1.4269                 3.2134                 1.1987
 IR Inten    --      0.6406                50.5269                 1.9967

                     52                     53                     54
                      A                      A                      A
 Frequencies --   1073.9358              1100.9266              1136.1027
 Red. masses --      2.5943                 1.8001                 1.8087
 Frc consts  --      1.7629                 1.2855                 1.3754
 IR Inten    --      9.4037                13.7932                 4.4986

                     55                     56                     57
                      A                      A                      A
 Frequencies --   1142.6294              1148.4804              1164.6601
 Red. masses --      1.6578                 2.1416                 1.5667
 Frc consts  --      1.2752                 1.6643                 1.2521
 IR Inten    --      3.0211                58.9128                 1.8804

                     58                     59                     60
                      A                      A                      A
 Frequencies --   1176.0663              1202.3276              1206.3426
 Red. masses --      1.4934                 1.1339                 1.7611
 Frc consts  --      1.2170                 0.9657                 1.5100
 IR Inten    --     11.8674                 0.3795                 1.7283

                     61                     62                     63
                      A                      A                      A
 Frequencies --   1223.7611              1228.4167              1241.2751
 Red. masses --      2.1194                 2.0567                 1.6278
 Frc consts  --      1.8701                 1.8286                 1.4777
 IR Inten    --     15.0652                 9.6962                 6.6856

                     64                     65                     66
                      A                      A                      A
 Frequencies --   1250.4579              1272.1860              1305.4035
 Red. masses --      1.3889                 1.4410                 2.4571
 Frc consts  --      1.2796                 1.3740                 2.4670
 IR Inten    --      1.1261                11.8750                 7.2989

                     67                     68                     69
                      A                      A                      A
 Frequencies --   1319.3651              1336.6850              1346.5110
 Red. masses --      1.4340                 1.5187                 2.8513
 Frc consts  --      1.4707                 1.5987                 3.0459
 IR Inten    --      1.1816                13.9058                 5.9243

                     70                     71                     72
                      A                      A                      A
 Frequencies --   1351.3454              1357.6701              1378.7028
 Red. masses --      2.0373                 2.0158                 1.3981
 Frc consts  --      2.1920                 2.1892                 1.5658
 IR Inten    --     19.7430                 6.5898                 2.4767

                     73                     74                     75
                      A                      A                      A
 Frequencies --   1386.3072              1388.5886              1440.6116
 Red. masses --      1.4439                 1.5920                 2.3620
 Frc consts  --      1.6349                 1.8085                 2.8881
 IR Inten    --      4.7540                 2.0975                29.0943

                     76                     77                     78
                      A                      A                      A
 Frequencies --   1444.1016              1453.1036              1472.6781
 Red. masses --      1.2394                 1.1824                 1.2490
 Frc consts  --      1.5229                 1.4710                 1.5960
 IR Inten    --      3.8723                 1.5198               149.0482

                     79                     80                     81
                      A                      A                      A
 Frequencies --   1495.6058              1502.3602              1511.2860
 Red. masses --      2.0866                 1.0542                 2.5133
 Frc consts  --      2.7500                 1.4020                 3.3821
 IR Inten    --     14.2817                16.9101                86.2537

                     82                     83                     84
                      A                      A                      A
 Frequencies --   1515.1638              1518.8972              1522.5563
 Red. masses --      1.1410                 1.0588                 1.1102
 Frc consts  --      1.5433                 1.4391                 1.5164
 IR Inten    --     23.7755                36.0293                 5.9281

                     85                     86                     87
                      A                      A                      A
 Frequencies --   1542.9746              1615.6905              1633.6241
 Red. masses --      2.2449                 6.9036                 5.9784
 Frc consts  --      3.1489                10.6181                 9.4002
 IR Inten    --     28.1434                12.3173                 2.9695

                     88                     89                     90
                      A                      A                      A
 Frequencies --   1645.2309              1658.4796              1664.9472
 Red. masses --      6.2601                 1.5474                 2.1730
 Frc consts  --      9.9836                 2.5076                 3.5491
 IR Inten    --      2.2325                94.3796                25.3368

                     91                     92                     93
                      A                      A                      A
 Frequencies --   3025.2405              3049.1219              3075.3741
 Red. masses --      1.0832                 1.0708                 1.0642
 Frc consts  --      5.8407                 5.8658                 5.9301
 IR Inten    --     19.3306                30.1964                33.5007

                     94                     95                     96
                      A                      A                      A
 Frequencies --   3088.9234              3121.9121              3129.1502
 Red. masses --      1.0852                 1.0336                 1.0981
 Frc consts  --      6.1008                 5.9354                 6.3350
 IR Inten    --     11.1826                 3.0500                30.8384

                     97                     98                     99
                      A                      A                      A
 Frequencies --   3129.3683              3211.2232              3216.3975
 Red. masses --      1.0959                 1.0853                 1.0896
 Frc consts  --      6.3229                 6.5936                 6.6413
 IR Inten    --     42.1024                 2.9894                 9.3290

                    100                    101                    102
                      A                      A                      A
 Frequencies --   3216.7250              3217.9742              3227.1550
 Red. masses --      1.1093                 1.0876                 1.1087
 Frc consts  --      6.7628                 6.6357                 6.8030
 IR Inten    --      2.9021                17.6069                 1.5733

                    103                    104                    105
                      A                      A                      A
 Frequencies --   3227.7706              3230.2436              3236.4161
 Red. masses --      1.0925                 1.0908                 1.0972
 Frc consts  --      6.7062                 6.7061                 6.7712
 IR Inten    --     32.0678                 1.7389                20.1208

                    106                    107                    108
                      A                      A                      A
 Frequencies --   3243.7867              3402.4080              3463.9551
 Red. masses --      1.0935                 1.0616                 1.0873
 Frc consts  --      6.7791                 7.2408                 7.6871
 IR Inten    --      3.2770                93.9534               118.8706

 - Thermochemistry -
 -------------------
 Temperature   298.150 Kelvin.  Pressure   1.00000 Atm.
 Atom     1 has atomic number  6 and mass  12.00000

 Molecular mass:   306.08163 amu.
 Principal axes and moments of inertia in atomic units:
                           1         2         3
     Eigenvalues --  3137.44344********************
           X            0.99991   0.00864  -0.01002
           Y           -0.00890   0.99961  -0.02654
           Z            0.00979   0.02662   0.99960
 This molecule is an asymmetric top.
 Rotational symmetry number  1.
 Warning -- assumption of classical behavior for rotation
           may cause significant error
 Rotational temperatures (Kelvin)      0.02761     0.00651     0.00604
 Rotational constants (GHZ):           0.57523     0.13559     0.12586
 Zero-point vibrational energy     834622.0 (Joules/Mol)
                                  199.47945 (Kcal/Mol)
 Warning -- explicit consideration of  27 degrees of freedom as
           vibrations may cause significant error
 Vibrational temperatures:     14.31    57.11    70.86   131.59   163.07
          (Kelvin)            180.49   194.79   248.99   280.91   285.14
                              299.38   309.04   335.66   389.91   440.92
                              498.74   525.88   572.35   607.62   639.81
                              660.18   665.45   682.53   696.75   755.25
                              788.72   859.41   906.34   908.73   989.82
                             1014.51  1031.64  1060.16  1123.27  1140.74
                             1164.32  1192.96  1204.86  1264.39  1285.34
                             1294.87  1299.83  1372.88  1389.21  1398.51
                             1404.54  1451.36  1460.56  1478.94  1498.15
                             1529.15  1545.15  1583.99  1634.60  1643.99
                             1652.41  1675.69  1692.10  1729.88  1735.66
                             1760.72  1767.42  1785.92  1799.13  1830.39
                             1878.18  1898.27  1923.19  1937.33  1944.28
                             1953.38  1983.65  1994.59  1997.87  2072.72
                             2077.74  2090.69  2118.86  2151.84  2161.56
                             2174.40  2179.98  2185.35  2190.62  2220.00
                             2324.62  2350.42  2367.12  2386.18  2395.49
                             4352.65  4387.01  4424.78  4444.27  4491.74
                             4502.15  4502.46  4620.23  4627.68  4628.15
                             4629.95  4643.16  4644.04  4647.60  4656.48
                             4667.09  4895.31  4983.86

 Zero-point correction=                           0.317891 (Hartree/Particle)
 Thermal correction to Energy=                    0.335543
 Thermal correction to Enthalpy=                  0.336487
 Thermal correction to Gibbs Free Energy=         0.270362
 Sum of electronic and zero-point Energies=          -1633.353866
 Sum of electronic and thermal Energies=             -1633.336214
 Sum of electronic and thermal Enthalpies=           -1633.335269
 Sum of electronic and thermal Free Energies=        -1633.401394

                     E (Thermal)             CV                S
                      KCal/Mol        Cal/Mol-Kelvin    Cal/Mol-Kelvin
 Total                  210.557             69.098            139.172
 Electronic               0.000              0.000              0.000
 Translational            0.889              2.981             43.053
 Rotational               0.889              2.981             34.748
 Vibrational            208.779             63.136             61.372
 Vibration     1          0.593              1.987              8.022
 Vibration     2          0.594              1.981              5.274
 Vibration     3          0.595              1.978              4.847
 Vibration     4          0.602              1.955              3.629
 Vibration     5          0.607              1.938              3.211
 Vibration     6          0.610              1.928              3.015
 Vibration     7          0.613              1.918              2.868
 Vibration     8          0.627              1.876              2.402
 Vibration     9          0.636              1.847              2.177
 Vibration    10          0.637              1.842              2.150
 Vibration    11          0.641              1.828              2.060
 Vibration    12          0.645              1.818              2.003
 Vibration    13          0.654              1.790              1.853
 Vibration    14          0.675              1.727              1.590
 Vibration    15          0.697              1.661              1.381
 Vibration    16          0.725              1.582              1.181
 Vibration    17          0.739              1.543              1.099
 Vibration    18          0.764              1.475              0.971
 Vibration    19          0.785              1.422              0.884
 Vibration    20          0.804              1.373              0.812
 Vibration    21          0.817              1.341              0.769
 Vibration    22          0.820              1.333              0.759
 Vibration    23          0.831              1.307              0.725
 Vibration    24          0.840              1.285              0.699
 Vibration    25          0.880              1.195              0.599
 Vibration    26          0.903              1.144              0.548
 Vibration    27          0.955              1.037              0.454

                           ! Non-Optimized Parameters !
 Normal termination of Gaussian 16 at Mon Jul 12 16:31:11 2021.

 ----------------------------------------------------------------------
 #p b3lyp/6-31G(d) scrf=(iefpcm,read,solvent=n-octanol) geom=allcheck g
 uess=read
 ----------------------------------------------------------------------

 Structure from the checkpoint file:  "SET_328_BBB2_conf1.geo_240_195.chk"
 ---------------------------------------
 SET_328_BBB2_conf1.geo_240_195 geometry
 ---------------------------------------
 Charge =  1 Multiplicity = 1

 SCF Done:  E(RB3LYP) =  -1633.67586559     A.U. after    1 cycles
 Normal termination of Gaussian 16 at Mon Jul 12 16:32:27 2021.

 -----------------------------
 #p B3LYP/6-31G* geom=allcheck
 -----------------------------

 Structure from the checkpoint file:  "SET_328_BBB2_conf1.geo_240_195.chk"
 ---------------------------------------
 SET_328_BBB2_conf1.geo_240_195 geometry
 ---------------------------------------
 Charge =  1 Multiplicity = 1

 SCF Done:  E(RB3LYP) =  -1633.57105123     A.U. after   15 cycles
 Normal termination of Gaussian 16 at Mon Jul 12 16:35:48 2021.
 Gaussian 16:  ES64L-G16RevA.03 25-Dec-2016

 --------------------------------------------------------
 #p mp2/aug-cc-pVDZ scf=tight maxdisk=180GB geom=allcheck
 --------------------------------------------------------

 Structure from the checkpoint file:  "SET_328_BBB2_conf1.geo_240_195.chk"
 ---------------------------------------
 SET_328_BBB2_conf1.geo_240_195 geometry
 ---------------------------------------
 Charge =  1 Multiplicity = 1

                         Standard orientation:
 ---------------------------------------------------------------------
 Center     Atomic      Atomic             Coordinates (Angstroms)
 Number     Number       Type             X           Y           Z
 ---------------------------------------------------------------------
      1          6           0       -5.674915   -1.741715    0.546394
      2          1           0       -6.659324   -1.661723    0.089998
      3          1           0       -5.748987   -1.624276    1.626141
      4          1           0       -5.223945   -2.699797    0.298969
      5          7           0       -4.816871   -0.637305    0.006478
      6          1           0       -4.729141   -0.728149   -1.016597
      7          6           0       -3.418982   -0.549205    0.631886
      8          6           0       -2.687314    0.660241    0.068217
      9          6           0       -1.429472    0.543043   -0.554339
     10          6           0       -0.847200    1.689438   -1.111452
     11          6           0       -1.463587    2.934667   -1.029913
     12          6           0       -2.674434    3.061165   -0.347954
     13          6           0       -3.270380    1.930536    0.200641
     14          1           0       -4.192609    2.056850    0.759309
     15          1           0       -3.147492    4.030193   -0.236555
     16          1           0       -0.988493    3.804194   -1.470937
     17          1           0        0.116955    1.597645   -1.598436
     18          1           0       -3.618000   -0.396800    1.697802
     19          6           0       -2.702241   -1.886873    0.412266
     20          1           0       -2.940670   -2.276919   -0.584683
     21          1           0       -3.054439   -2.623165    1.137998
     22          6           0       -1.188742   -1.724395    0.507303
     23          1           0       -0.709412   -2.701714    0.414306
     24          1           0       -0.908420   -1.323588    1.487532
     25          6           0       -0.685214   -0.789172   -0.605927
     26          1           0       -0.916652   -1.272969   -1.564338
     27          6           0        0.826698   -0.643733   -0.550156
     28          6           0        1.454767   -0.022834    0.535074
     29          1           0        0.870834    0.409678    1.338757
     30          6           0        2.842948    0.064958    0.602521
     31         17           0        3.566874    0.854242    1.983459
     32          6           0        3.631018   -0.471811   -0.423228
     33         17           0        5.374007   -0.380313   -0.376839
     34          6           0        3.013634   -1.091199   -1.507894
     35          1           0        3.627409   -1.503020   -2.299605
     36          6           0        1.624723   -1.174836   -1.567052
     37          1           0        1.155713   -1.660442   -2.416151
     38          1           0       -5.318052    0.248673    0.140280
 ---------------------------------------------------------------------

 SCF Done:  E(RHF) =  -1627.57259158     A.U. after   17 cycles
 E2 =    -0.2824549587D+01 EUMP2 =    -0.16303971411706D+04

 The electronic state is 1-A.
 Alpha  occ. eigenvalues -- -104.91969-104.91570 -15.86696 -11.46549 -11.46027
 Alpha  occ. eigenvalues --  -11.40491 -11.40104 -11.39157 -11.38972 -11.38239
 Alpha  occ. eigenvalues --  -11.37843 -11.37492 -11.36591 -11.36503 -11.36372
 Alpha  occ. eigenvalues --  -11.35928 -11.35857 -11.35034 -11.34846 -11.34618
 Alpha  occ. eigenvalues --  -10.64531 -10.64134  -8.11314  -8.10965  -8.10957
 Alpha  occ. eigenvalues --   -8.10917  -8.10565  -8.10558  -1.48726  -1.30911
 Alpha  occ. eigenvalues --   -1.29560  -1.24473  -1.22275  -1.21191  -1.18148
 Alpha  occ. eigenvalues --   -1.15213  -1.13061  -1.12316  -1.10173  -1.07671
 Alpha  occ. eigenvalues --   -1.01363  -0.98495  -0.96288  -0.94197  -0.93095
 Alpha  occ. eigenvalues --   -0.90501  -0.88751  -0.86391  -0.82570  -0.80951
 Alpha  occ. eigenvalues --   -0.79223  -0.77866  -0.77493  -0.75788  -0.74521
 Alpha  occ. eigenvalues --   -0.73973  -0.72963  -0.72688  -0.71827  -0.69788
 Alpha  occ. eigenvalues --   -0.68980  -0.68310  -0.67616  -0.66512  -0.64998
 Alpha  occ. eigenvalues --   -0.64295  -0.63159  -0.62345  -0.61753  -0.60237
 Alpha  occ. eigenvalues --   -0.59196  -0.58707  -0.56058  -0.54502  -0.54346
 Alpha  occ. eigenvalues --   -0.51972  -0.46638  -0.45820  -0.43158  -0.41831
 Alpha virt. eigenvalues --   -0.08781  -0.06985  -0.06464  -0.05345  -0.04175
 Alpha virt. eigenvalues --   -0.03777  -0.03537  -0.03388  -0.02844  -0.02328
 Alpha virt. eigenvalues --   -0.01754  -0.01372  -0.01087  -0.00811  -0.00574

 Mulliken charges:
               1
     1  C    0.924200
     2  H   -0.150475
     3  H   -0.067885
     4  H   -0.115148
     5  N   -0.646044
     6  H    0.197442
     7  C    0.318358
     8  C   -0.143340
     9  C   -0.002670
    10  C    0.658085
    11  C    0.256793
    12  C    0.385051
    13  C    0.400100
    14  H   -0.701869
    15  H   -0.460850
    16  H   -0.475057
    17  H   -0.558515
    18  H   -0.241287
    19  C    0.757835
    20  H   -0.193620
    21  H   -0.078203
    22  C    0.991986
    23  H   -0.182871
    24  H   -0.226456
    25  C    0.070611
    26  H   -0.246128
    27  C    1.627966
    28  C    1.373310
    29  H   -0.727029
    30  C   -0.557716
    31  Cl  -0.337757
    32  C   -0.475966
    33  Cl  -0.330320
    34  C    0.611922
    35  H   -0.438783
    36  C    0.421715
    37  H   -0.755070
    38  H    0.117685
 Sum of Mulliken charges =   1.00000

 Dipole moment (field-independent basis, Debye):
    X=            -20.7352    Y=             -3.3413    Z=             -1.0988  Tot=             21.0314
 Quadrupole moment (field-independent basis, Debye-Ang):
   XX=            -33.8057   YY=           -112.5549   ZZ=           -124.7238
   XY=             13.2843   XZ=            -10.1969   YZ=             -0.1218

 Normal termination of Gaussian 16 at Mon Jul 12 18:13:38 2021.
