 Gaussian 16, Revision A.03,

 ---------------------------------------------------------------
 #p b3lyp/6-31G(d) opt freq scrf=(iefpcm,read,solvent=n-octanol)
 ---------------------------------------------------------------

 -----------------------------------------
 SET_328_BBB285_conf1.geo_120_075 geometry
 -----------------------------------------
 Symbolic Z-matrix:
 Charge = -1 Multiplicity = 1

 SCF Done:  E(RB3LYP) =  -906.590434533     A.U. after   16 cycles
 SCF Done:  E(RB3LYP) =  -906.626506370     A.U. after   12 cycles
 SCF Done:  E(RB3LYP) =  -906.642197707     A.U. after   12 cycles
 SCF Done:  E(RB3LYP) =  -906.644835867     A.U. after   12 cycles
 SCF Done:  E(RB3LYP) =  -906.645617192     A.U. after   12 cycles
 SCF Done:  E(RB3LYP) =  -906.647501858     A.U. after   11 cycles
 SCF Done:  E(RB3LYP) =  -906.648504920     A.U. after   11 cycles
 SCF Done:  E(RB3LYP) =  -906.649775006     A.U. after   12 cycles
 SCF Done:  E(RB3LYP) =  -906.651199407     A.U. after   11 cycles
 SCF Done:  E(RB3LYP) =  -906.651206753     A.U. after   11 cycles
 SCF Done:  E(RB3LYP) =  -906.651500986     A.U. after    8 cycles
 SCF Done:  E(RB3LYP) =  -906.651501644     A.U. after    7 cycles
 SCF Done:  E(RB3LYP) =  -906.651502074     A.U. after    7 cycles
 SCF Done:  E(RB3LYP) =  -906.651502668     A.U. after    7 cycles
 SCF Done:  E(RB3LYP) =  -906.651503675     A.U. after    7 cycles
 SCF Done:  E(RB3LYP) =  -906.651503951     A.U. after    8 cycles
 Optimization completed.
    -- Stationary point found.
 Normal termination of Gaussian 16 at Mon Jul 12 13:31:18 2021.

 --------------------------------------------------------------------
 #P Geom=AllCheck Guess=TCheck SCRF=Check GenChk RB3LYP/6-31G(d) Freq
 --------------------------------------------------------------------

 Structure from the checkpoint file:  "SET_328_BBB285_conf1.geo_120_075.chk"
 -----------------------------------------
 SET_328_BBB285_conf1.geo_120_075 geometry
 -----------------------------------------
 Charge = -1 Multiplicity = 1

 SCF Done:  E(RB3LYP) =  -906.651503951     A.U. after    1 cycles

  Exact polarizability: 190.039  -7.413 118.378  -1.481 -25.172 131.673
 Approx polarizability: 211.094  -6.677 151.896  -7.780 -42.163 182.580

                      1                      2                      3
                      A                      A                      A
 Frequencies --     13.9321                39.2738                56.3322
 Red. masses --      8.0089                 6.8412                 6.4729
 Frc consts  --      0.0009                 0.0062                 0.0121
 IR Inten    --      6.6234                 1.5195                 3.4195

                      4                      5                      6
                      A                      A                      A
 Frequencies --     73.1856                94.4941               112.6126
 Red. masses --      6.5121                 6.5609                 3.7302
 Frc consts  --      0.0206                 0.0345                 0.0279
 IR Inten    --      7.2974                 7.3121                 6.9402

                      7                      8                      9
                      A                      A                      A
 Frequencies --    132.1498               171.6448               192.8917
 Red. masses --      6.4541                 4.1725                 8.3374
 Frc consts  --      0.0664                 0.0724                 0.1828
 IR Inten    --      3.1914                 4.8667                 3.7238

                     10                     11                     12
                      A                      A                      A
 Frequencies --    214.0535               274.1721               280.4252
 Red. masses --      7.2169                 4.7899                 5.0019
 Frc consts  --      0.1948                 0.2121                 0.2318
 IR Inten    --     14.2470                 6.3945                26.0962

                     13                     14                     15
                      A                      A                      A
 Frequencies --    291.8364               305.5130               328.5934
 Red. masses --      4.7860                 1.2757                 5.7939
 Frc consts  --      0.2402                 0.0702                 0.3686
 IR Inten    --     33.4572                62.6120                13.1290

                     16                     17                     18
                      A                      A                      A
 Frequencies --    400.4499               431.1165               442.2017
 Red. masses --      2.9084                 4.9241                 1.4679
 Frc consts  --      0.2748                 0.5392                 0.1691
 IR Inten    --     47.9423                 4.8655               160.7328

                     19                     20                     21
                      A                      A                      A
 Frequencies --    484.8193               520.5941               538.4439
 Red. masses --      3.6881                 3.3159                 6.5862
 Frc consts  --      0.5108                 0.5295                 1.1250
 IR Inten    --      5.5511                31.8975                12.3568

                     22                     23                     24
                      A                      A                      A
 Frequencies --    562.4825               593.5297               626.5089
 Red. masses --      1.2317                 5.1762                 4.1480
 Frc consts  --      0.2296                 1.0743                 0.9593
 IR Inten    --    199.5984                 6.6513                38.2891

                     25                     26                     27
                      A                      A                      A
 Frequencies --    683.1295               738.3916               749.3455
 Red. masses --      9.4989                 1.3804                 6.9058
 Frc consts  --      2.6117                 0.4434                 2.2847
 IR Inten    --      0.8144                57.3351                15.8856

                     28                     29                     30
                      A                      A                      A
 Frequencies --    763.1514               780.6432               783.6712
 Red. masses --      5.6405                 3.7329                 4.3680
 Frc consts  --      1.9355                 1.3403                 1.5805
 IR Inten    --     94.6328                 0.4319                40.4110

                     31                     32                     33
                      A                      A                      A
 Frequencies --    823.5336               853.6480               882.6435
 Red. masses --      3.4948                 3.6472                 1.4674
 Frc consts  --      1.3965                 1.5659                 0.6735
 IR Inten    --    124.0485               103.2844                12.3268

                     34                     35                     36
                      A                      A                      A
 Frequencies --    902.4630               972.0334              1003.3846
 Red. masses --      3.4446                 3.3490                 4.7082
 Frc consts  --      1.6529                 1.8644                 2.7928
 IR Inten    --     15.3220                68.2212                61.0128

                     37                     38                     39
                      A                      A                      A
 Frequencies --   1023.7472              1032.6766              1041.5518
 Red. masses --      2.1909                 2.5423                 3.5623
 Frc consts  --      1.3529                 1.5974                 2.2769
 IR Inten    --     57.6052                13.5165                30.9970

                     40                     41                     42
                      A                      A                      A
 Frequencies --   1067.2696              1100.2381              1104.3281
 Red. masses --      3.9548                 3.7070                 3.5081
 Frc consts  --      2.6541                 2.6439                 2.5207
 IR Inten    --    308.5120                24.2106               297.1078

                     43                     44                     45
                      A                      A                      A
 Frequencies --   1124.7127              1136.8584              1158.4724
 Red. masses --      3.1038                 3.8698                 1.9691
 Frc consts  --      2.3133                 2.9468                 1.5570
 IR Inten    --     39.8957                15.5791                 6.1936

                     46                     47                     48
                      A                      A                      A
 Frequencies --   1212.9497              1216.0298              1230.3156
 Red. masses --      1.2624                 1.5403                 1.3292
 Frc consts  --      1.0943                 1.3420                 1.1854
 IR Inten    --     74.4463                81.4028                49.3736

                     49                     50                     51
                      A                      A                      A
 Frequencies --   1239.1830              1258.4200              1317.7249
 Red. masses --      2.2731                 1.2320                 6.7230
 Frc consts  --      2.0566                 1.1495                 6.8780
 IR Inten    --     16.9053                47.8542                76.2537

                     52                     53                     54
                      A                      A                      A
 Frequencies --   1322.3435              1330.1557              1350.5178
 Red. masses --      1.4794                 1.4629                 1.2751
 Frc consts  --      1.5241                 1.5250                 1.3702
 IR Inten    --     11.1813                14.3277                 5.3719

                     55                     56                     57
                      A                      A                      A
 Frequencies --   1364.2135              1370.4608              1387.5255
 Red. masses --      2.6648                 1.6373                 1.4550
 Frc consts  --      2.9220                 1.8118                 1.6505
 IR Inten    --    325.2561               146.7474                35.4118

                     58                     59                     60
                      A                      A                      A
 Frequencies --   1401.5326              1410.2875              1418.1408
 Red. masses --      1.3962                 1.2330                 5.5950
 Frc consts  --      1.6159                 1.4448                 6.6296
 IR Inten    --     39.3080                48.3940                31.2776

                     61                     62                     63
                      A                      A                      A
 Frequencies --   1437.4801              1445.1953              1449.8872
 Red. masses --      1.6405                 1.4813                 3.8065
 Frc consts  --      1.9972                 1.8229                 4.7147
 IR Inten    --     60.9263                35.0343               143.9865

                     64                     65                     66
                      A                      A                      A
 Frequencies --   1455.1719              1529.7461              1539.3619
 Red. masses --      1.7031                 1.0945                 5.8685
 Frc consts  --      2.1248                 1.5091                 8.1933
 IR Inten    --      9.7651                 0.7902                17.1579

                     67                     68                     69
                      A                      A                      A
 Frequencies --   1683.5623              3056.4003              3077.4314
 Red. masses --      8.0367                 1.0672                 1.0862
 Frc consts  --     13.4211                 5.8735                 6.0609
 IR Inten    --    488.4049                42.3525                58.0549

                     70                     71                     72
                      A                      A                      A
 Frequencies --   3094.4892              3141.1189              3151.4720
 Red. masses --      1.0854                 1.0987                 1.0874
 Frc consts  --      6.1240                 6.3872                 6.3629
 IR Inten    --     44.6010                47.7229                20.6471

                     73                     74                     75
                      A                      A                      A
 Frequencies --   3176.1625              3314.9178              3427.4617
 Red. masses --      1.0876                 1.0972                 1.0727
 Frc consts  --      6.4642                 7.1038                 7.4245
 IR Inten    --      9.8493                 1.4803                 9.0603

                     76                     77                     78
                      A                      A                      A
 Frequencies --   3626.9759              3718.5057              3744.2769
 Red. masses --      1.0649                 1.0653                 1.0669
 Frc consts  --      8.2535                 8.6790                 8.8130
 IR Inten    --    117.2318                47.3009                92.6039

 - Thermochemistry -
 -------------------
 Temperature   298.150 Kelvin.  Pressure   1.00000 Atm.
 Atom     1 has atomic number  7 and mass  14.00307

 Molecular mass:   243.07294 amu.
 Principal axes and moments of inertia in atomic units:
                           1         2         3
     Eigenvalues --  1670.537177987.498028418.50619
           X            1.00000  -0.00160   0.00270
           Y            0.00168   0.99953  -0.03047
           Z           -0.00265   0.03047   0.99953
 This molecule is an asymmetric top.
 Rotational symmetry number  1.
 Warning -- assumption of classical behavior for rotation
           may cause significant error
 Rotational temperatures (Kelvin)      0.05185     0.01084     0.01029
 Rotational constants (GHZ):           1.08034     0.22595     0.21438
 Zero-point vibrational energy     561087.9 (Joules/Mol)
                                  134.10322 (Kcal/Mol)
 Warning -- explicit consideration of  23 degrees of freedom as
           vibrations may cause significant error
 Vibrational temperatures:     20.05    56.51    81.05   105.30   135.96
          (Kelvin)            162.02   190.13   246.96   277.53   307.98
                              394.47   403.47   419.89   439.57   472.77
                              576.16   620.28   636.23   697.55   749.02
                              774.70   809.29   853.96   901.41   982.87
                             1062.38  1078.14  1098.00  1123.17  1127.53
                             1184.88  1228.21  1269.93  1298.44  1398.54
                             1443.65  1472.94  1485.79  1498.56  1535.56
                             1583.00  1588.88  1618.21  1635.69  1666.78
                             1745.16  1749.60  1770.15  1782.91  1810.59
                             1895.91  1902.56  1913.80  1943.09  1962.80
                             1971.79  1996.34  2016.49  2029.09  2040.39
                             2068.21  2079.31  2086.06  2093.67  2200.96
                             2214.80  2422.27  4397.48  4427.74  4452.28
                             4519.37  4534.27  4569.79  4769.43  4931.35
                             5218.41  5350.10  5387.18

 Zero-point correction=                           0.213707 (Hartree/Particle)
 Thermal correction to Energy=                    0.229217
 Thermal correction to Enthalpy=                  0.230161
 Thermal correction to Gibbs Free Energy=         0.168569
 Sum of electronic and zero-point Energies=           -906.437797
 Sum of electronic and thermal Energies=              -906.422287
 Sum of electronic and thermal Enthalpies=            -906.421343
 Sum of electronic and thermal Free Energies=         -906.482935

                     E (Thermal)             CV                S
                      KCal/Mol        Cal/Mol-Kelvin    Cal/Mol-Kelvin
 Total                  143.836             57.371            129.632
 Electronic               0.000              0.000              0.000
 Translational            0.889              2.981             42.366
 Rotational               0.889              2.981             33.085
 Vibrational            142.058             51.409             54.181
 Vibration     1          0.593              1.986              7.352
 Vibration     2          0.594              1.981              5.295
 Vibration     3          0.596              1.975              4.582
 Vibration     4          0.599              1.967              4.066
 Vibration     5          0.603              1.953              3.565
 Vibration     6          0.607              1.939              3.223
 Vibration     7          0.612              1.921              2.915
 Vibration     8          0.626              1.877              2.417
 Vibration     9          0.635              1.850              2.200
 Vibration    10          0.644              1.820              2.009
 Vibration    11          0.676              1.721              1.570
 Vibration    12          0.680              1.710              1.531
 Vibration    13          0.687              1.689              1.463
 Vibration    14          0.696              1.663              1.387
 Vibration    15          0.712              1.618              1.267
 Vibration    16          0.766              1.469              0.961
 Vibration    17          0.792              1.402              0.855
 Vibration    18          0.802              1.378              0.820
 Vibration    19          0.841              1.284              0.697
 Vibration    20          0.876              1.204              0.609
 Vibration    21          0.893              1.165              0.569
 Vibration    22          0.918              1.112              0.519
 Vibration    23          0.951              1.046              0.461

                           ! Non-Optimized Parameters !
 Normal termination of Gaussian 16 at Mon Jul 12 13:53:49 2021.

 ----------------------------------------------------------------------
 #p b3lyp/6-31G(d) scrf=(iefpcm,read,solvent=n-octanol) geom=allcheck g
 uess=read
 ----------------------------------------------------------------------

 Structure from the checkpoint file:  "SET_328_BBB285_conf1.geo_120_075.chk"
 -----------------------------------------
 SET_328_BBB285_conf1.geo_120_075 geometry
 -----------------------------------------
 Charge = -1 Multiplicity = 1

 SCF Done:  E(RB3LYP) =  -906.651503951     A.U. after    1 cycles
 Normal termination of Gaussian 16 at Mon Jul 12 13:54:16 2021.

 -----------------------------
 #p B3LYP/6-31G* geom=allcheck
 -----------------------------

 Structure from the checkpoint file:  "SET_328_BBB285_conf1.geo_120_075.chk"
 -----------------------------------------
 SET_328_BBB285_conf1.geo_120_075 geometry
 -----------------------------------------
 Charge = -1 Multiplicity = 1

 SCF Done:  E(RB3LYP) =  -906.540704169     A.U. after   17 cycles
 Normal termination of Gaussian 16 at Mon Jul 12 13:56:05 2021.
 Gaussian 16:  ES64L-G16RevA.03 25-Dec-2016

 --------------------------------------------------------
 #p mp2/aug-cc-pVDZ scf=tight maxdisk=180GB geom=allcheck
 --------------------------------------------------------

 Structure from the checkpoint file:  "SET_328_BBB285_conf1.geo_120_075.chk"
 -----------------------------------------
 SET_328_BBB285_conf1.geo_120_075 geometry
 -----------------------------------------
 Charge = -1 Multiplicity = 1

                         Standard orientation:
 ---------------------------------------------------------------------
 Center     Atomic      Atomic             Coordinates (Angstroms)
 Number     Number       Type             X           Y           Z
 ---------------------------------------------------------------------
      1          7           0       -4.777424    1.051615   -1.018970
      2          1           0       -3.958317    1.295650   -1.581309
      3          6           0       -4.361868    0.299684   -0.012829
      4          8           0       -5.070594   -0.202361    0.904215
      5          6           0       -2.884868   -0.030640    0.103092
      6          6           0       -2.273739   -0.822222    1.099383
      7          7           0       -0.964011   -0.898326    0.868590
      8          1           0       -2.733378   -1.321111    1.937055
      9          7           0       -1.924111    0.376051   -0.734959
     10          7           0       -0.805902   -0.172153   -0.246718
     11          6           0        0.505670    0.100859   -0.814417
     12          1           0        0.319299    0.489228   -1.813348
     13          8           0        1.199627    1.080434   -0.058175
     14          6           0        2.214020    0.477055    0.777926
     15          6           0        3.546637    1.108534    0.387278
     16          8           0        3.468024    2.520971    0.507865
     17          1           0        2.684036    2.779515   -0.005736
     18          1           0        3.802822    0.807990   -0.636111
     19          1           0        4.338627    0.767037    1.057457
     20          1           0        1.983258    0.741955    1.813937
     21          6           0        2.109193   -1.042051    0.546118
     22          8           0        3.403995   -1.631699    0.499790
     23          1           0        3.320110   -2.568837    0.740400
     24          1           0        1.484350   -1.494703    1.315490
     25          6           0        1.390265   -1.147877   -0.815715
     26          1           0        0.794680   -2.062365   -0.906006
     27          8           0        2.329213   -1.038099   -1.867764
     28          1           0        3.150666   -1.428684   -1.509905
 ---------------------------------------------------------------------

 SCF Done:  E(RHF) =  -901.540537054     A.U. after   16 cycles
 E2 =    -0.2818754314D+01 EUMP2 =    -0.90435929136784D+03

 The electronic state is 1-A.
 Alpha  occ. eigenvalues --  -20.53813 -20.50592 -20.50282 -20.49168 -20.31580
 Alpha  occ. eigenvalues --  -15.56685 -15.51007 -15.50284 -15.33075 -11.25691
 Alpha  occ. eigenvalues --  -11.23395 -11.22542 -11.22107 -11.20772 -11.15141
 Alpha  occ. eigenvalues --  -11.15109 -11.13809  -1.35412  -1.33550  -1.31104
 Alpha  occ. eigenvalues --   -1.29655  -1.28040  -1.15187  -1.07709  -1.03230
 Alpha  occ. eigenvalues --   -0.98017  -0.95394  -0.92175  -0.84310  -0.77036
 Alpha  occ. eigenvalues --   -0.74312  -0.72957  -0.69065  -0.67091  -0.64351
 Alpha  occ. eigenvalues --   -0.63273  -0.61958  -0.59240  -0.57867  -0.57544
 Alpha  occ. eigenvalues --   -0.55479  -0.52690  -0.52203  -0.50561  -0.50132
 Alpha  occ. eigenvalues --   -0.49696  -0.48277  -0.48006  -0.47050  -0.44249
 Alpha  occ. eigenvalues --   -0.42136  -0.39832  -0.39730  -0.38948  -0.37836
 Alpha  occ. eigenvalues --   -0.37031  -0.35836  -0.35660  -0.34891  -0.28434
 Alpha  occ. eigenvalues --   -0.24479  -0.23658  -0.21364  -0.15473
 Alpha virt. eigenvalues --    0.08248   0.10669   0.10773   0.11761   0.12520
 Alpha virt. eigenvalues --    0.12924   0.13175   0.13790   0.14718   0.15626
 Alpha virt. eigenvalues --    0.16913   0.18325   0.18689   0.19842   0.20043

 Mulliken charges:
               1
     1  N   -0.702375
     2  H   -0.013391
     3  C    1.016775
     4  O   -1.013212
     5  C    0.830400
     6  C    0.414975
     7  N   -0.383084
     8  H   -0.400840
     9  N   -0.899483
    10  N   -0.428582
    11  C    1.510144
    12  H   -0.301192
    13  O   -1.294584
    14  C    0.658310
    15  C    1.137271
    16  O   -0.758899
    17  H    0.190984
    18  H   -0.130400
    19  H   -0.106671
    20  H   -0.315889
    21  C    0.773802
    22  O   -0.880456
    23  H    0.135341
    24  H   -0.123149
    25  C    0.960000
    26  H   -0.188282
    27  O   -0.905415
    28  H    0.217902
 Sum of Mulliken charges =  -1.00000

 Dipole moment (field-independent basis, Debye):
    X=             20.6004    Y=             -5.9063    Z=              1.0454  Tot=             21.4558
 Quadrupole moment (field-independent basis, Debye-Ang):
   XX=           -231.9587   YY=           -105.1244   ZZ=           -109.7575
   XY=             -2.4589   XZ=             -0.2757   YZ=             -2.3666

 Normal termination of Gaussian 16 at Mon Jul 12 14:31:19 2021.
