 Gaussian 16, Revision A.03,

 ---------------------------------------------------------------
 #p b3lyp/6-31G(d) opt freq scrf=(iefpcm,read,solvent=n-octanol)
 ---------------------------------------------------------------

 -----------------------------------------
 SET_328_BBB299_conf1.geo_195_180 geometry
 -----------------------------------------
 Symbolic Z-matrix:
 Charge = -1 Multiplicity = 1

 SCF Done:  E(RB3LYP) =  -495.521135121     A.U. after   14 cycles
 SCF Done:  E(RB3LYP) =  -495.563701334     A.U. after   13 cycles
 SCF Done:  E(RB3LYP) =  -495.565728354     A.U. after   12 cycles
 SCF Done:  E(RB3LYP) =  -495.568479827     A.U. after   12 cycles
 SCF Done:  E(RB3LYP) =  -495.569610858     A.U. after   11 cycles
 SCF Done:  E(RB3LYP) =  -495.569576203     A.U. after   10 cycles
 SCF Done:  E(RB3LYP) =  -495.569587410     A.U. after    8 cycles
 SCF Done:  E(RB3LYP) =  -495.569609651     A.U. after    9 cycles
 SCF Done:  E(RB3LYP) =  -495.569610923     A.U. after    8 cycles
 SCF Done:  E(RB3LYP) =  -495.569589698     A.U. after    9 cycles
 Optimization completed.
    -- Stationary point found.
 Normal termination of Gaussian 16 at Mon Jul 12 12:53:47 2021.

 --------------------------------------------------------------------
 #P Geom=AllCheck Guess=TCheck SCRF=Check GenChk RB3LYP/6-31G(d) Freq
 --------------------------------------------------------------------

 Structure from the checkpoint file:  "SET_328_BBB299_conf1.geo_195_180.chk"
 -----------------------------------------
 SET_328_BBB299_conf1.geo_195_180 geometry
 -----------------------------------------
 Charge = -1 Multiplicity = 1

 SCF Done:  E(RB3LYP) =  -495.569589698     A.U. after    1 cycles

  Exact polarizability: 129.125   1.948 122.756  -0.690   0.738  37.751
 Approx polarizability: 161.274   5.709 170.582  -1.192   3.536  50.885

                      1                      2                      3
                      A                      A                      A
 Frequencies --     76.5137               142.5922               202.0935
 Red. masses --     11.6082                 5.4971                 8.3739
 Frc consts  --      0.0400                 0.0659                 0.2015
 IR Inten    --      0.9239                 0.5206                 2.1670

                      4                      5                      6
                      A                      A                      A
 Frequencies --    248.4921               352.7602               354.5728
 Red. masses --      4.4901                 2.0488                 2.1787
 Frc consts  --      0.1634                 0.1502                 0.1614
 IR Inten    --      1.9120                77.6513                68.5870

                      7                      8                      9
                      A                      A                      A
 Frequencies --    390.9899               456.2343               531.4571
 Red. masses --      5.1328                 4.2454                 4.0699
 Frc consts  --      0.4623                 0.5207                 0.6773
 IR Inten    --     10.5891                11.1580                11.6889

                     10                     11                     12
                      A                      A                      A
 Frequencies --    557.8666               576.8853               664.7263
 Red. masses --      5.2911                 6.1214                 6.8358
 Frc consts  --      0.9702                 1.2003                 1.7796
 IR Inten    --      4.3422                10.2731                26.2899

                     13                     14                     15
                      A                      A                      A
 Frequencies --    703.8666               767.4816               802.2737
 Red. masses --      4.5159                 1.4294                 5.6795
 Frc consts  --      1.3182                 0.4961                 2.1538
 IR Inten    --     17.1239                70.4953                50.6016

                     16                     17                     18
                      A                      A                      A
 Frequencies --    812.5283               856.9055               859.8263
 Red. masses --      4.3094                 1.7362                 5.4075
 Frc consts  --      1.6763                 0.7511                 2.3554
 IR Inten    --     26.3055                 5.2323                59.2504

                     19                     20                     21
                      A                      A                      A
 Frequencies --    954.8268               990.2646              1074.1440
 Red. masses --      1.2971                 1.2534                 2.3534
 Frc consts  --      0.6968                 0.7242                 1.5998
 IR Inten    --      0.7597                 2.6373                 7.8162

                     22                     23                     24
                      A                      A                      A
 Frequencies --   1102.2383              1168.6922              1182.3925
 Red. masses --      2.8405                 2.0875                 1.0831
 Frc consts  --      2.0333                 1.6799                 0.8922
 IR Inten    --     52.7712                28.3601                19.2602

                     25                     26                     27
                      A                      A                      A
 Frequencies --   1204.3063              1289.4922              1329.6879
 Red. masses --      1.3427                 3.3276                 1.7811
 Frc consts  --      1.1474                 3.2601                 1.8554
 IR Inten    --     96.6679                79.6206               115.7697

                     28                     29                     30
                      A                      A                      A
 Frequencies --   1374.2280              1393.4367              1487.2361
 Red. masses --      4.1914                 6.1363                 2.4542
 Frc consts  --      4.6637                 7.0199                 3.1983
 IR Inten    --    218.4706               421.9213                64.0468

                     31                     32                     33
                      A                      A                      A
 Frequencies --   1541.5462              1639.5711              1653.6919
 Red. masses --      2.4387                 6.1771                 6.1034
 Frc consts  --      3.4144                 9.7835                 9.8341
 IR Inten    --     19.2470                42.2657                36.4547

                     34                     35                     36
                      A                      A                      A
 Frequencies --   1683.4628              3177.5787              3195.9072
 Red. masses --     10.8480                 1.0873                 1.0883
 Frc consts  --     18.1137                 6.4683                 6.5493
 IR Inten    --    708.7640                25.2393                26.9483

                     37                     38                     39
                      A                      A                      A
 Frequencies --   3212.2197              3240.6563              3755.1242
 Red. masses --      1.0953                 1.0904                 1.0657
 Frc consts  --      6.6589                 6.7470                 8.8539
 IR Inten    --     45.6683                12.2919                65.1642

 - Thermochemistry -
 -------------------
 Temperature   298.150 Kelvin.  Pressure   1.00000 Atm.
 Atom     1 has atomic number  8 and mass  15.99491

 Molecular mass:   137.02387 amu.
 Principal axes and moments of inertia in atomic units:
                           1         2         3
     Eigenvalues --   782.069781492.471412226.51715
           X            1.00000   0.00268  -0.00078
           Y           -0.00268   0.99997  -0.00737
           Z            0.00076   0.00737   0.99997
 This molecule is an asymmetric top.
 Rotational symmetry number  1.
 Warning -- assumption of classical behavior for rotation
           may cause significant error
 Rotational temperatures (Kelvin)      0.11075     0.05803     0.03890
 Rotational constants (GHZ):           2.30765     1.20923     0.81057
 Zero-point vibrational energy     281174.9 (Joules/Mol)
                                   67.20241 (Kcal/Mol)
 Warning -- explicit consideration of  11 degrees of freedom as
           vibrations may cause significant error
 Vibrational temperatures:    110.09   205.16   290.77   357.52   507.54
          (Kelvin)            510.15   562.55   656.42   764.65   802.65
                              830.01   956.39  1012.71  1104.23  1154.29
                             1169.05  1232.90  1237.10  1373.78  1424.77
                             1545.45  1585.88  1681.49  1701.20  1732.73
                             1855.29  1913.12  1977.21  2004.84  2139.80
                             2217.94  2358.98  2379.29  2422.13  4571.83
                             4598.20  4621.67  4662.58  5402.79

 Zero-point correction=                           0.107094 (Hartree/Particle)
 Thermal correction to Energy=                    0.115109
 Thermal correction to Enthalpy=                  0.116053
 Thermal correction to Gibbs Free Energy=         0.074002
 Sum of electronic and zero-point Energies=           -495.462496
 Sum of electronic and thermal Energies=              -495.454481
 Sum of electronic and thermal Enthalpies=            -495.453537
 Sum of electronic and thermal Free Energies=         -495.495587

                     E (Thermal)             CV                S
                      KCal/Mol        Cal/Mol-Kelvin    Cal/Mol-Kelvin
 Total                   72.232             30.443             88.502
 Electronic               0.000              0.000              0.000
 Translational            0.889              2.981             40.657
 Rotational               0.889              2.981             29.343
 Vibrational             70.454             24.481             18.503
 Vibration     1          0.599              1.965              3.978
 Vibration     2          0.616              1.911              2.769
 Vibration     3          0.639              1.837              2.114
 Vibration     4          0.662              1.765              1.741
 Vibration     5          0.729              1.570              1.154
 Vibration     6          0.730              1.566              1.146
 Vibration     7          0.759              1.489              0.996
 Vibration     8          0.814              1.347              0.777
 Vibration     9          0.886              1.180              0.584
 Vibration    10          0.913              1.123              0.528
 Vibration    11          0.933              1.081              0.491

                           ! Non-Optimized Parameters !
 Normal termination of Gaussian 16 at Mon Jul 12 12:59:02 2021.

 ----------------------------------------------------------------------
 #p b3lyp/6-31G(d) scrf=(iefpcm,read,solvent=n-octanol) geom=allcheck g
 uess=read
 ----------------------------------------------------------------------

 Structure from the checkpoint file:  "SET_328_BBB299_conf1.geo_195_180.chk"
 -----------------------------------------
 SET_328_BBB299_conf1.geo_195_180 geometry
 -----------------------------------------
 Charge = -1 Multiplicity = 1

 SCF Done:  E(RB3LYP) =  -495.569589698     A.U. after    3 cycles
 Normal termination of Gaussian 16 at Mon Jul 12 12:59:18 2021.

 -----------------------------
 #p B3LYP/6-31G* geom=allcheck
 -----------------------------

 Structure from the checkpoint file:  "SET_328_BBB299_conf1.geo_195_180.chk"
 -----------------------------------------
 SET_328_BBB299_conf1.geo_195_180 geometry
 -----------------------------------------
 Charge = -1 Multiplicity = 1

 SCF Done:  E(RB3LYP) =  -495.455186293     A.U. after   16 cycles
 Normal termination of Gaussian 16 at Mon Jul 12 12:59:51 2021.
 Gaussian 16:  ES64L-G16RevA.03 25-Dec-2016

 --------------------------------------------------------
 #p mp2/aug-cc-pVDZ scf=tight maxdisk=180GB geom=allcheck
 --------------------------------------------------------

 Structure from the checkpoint file:  "SET_328_BBB299_conf1.geo_195_180.chk"
 -----------------------------------------
 SET_328_BBB299_conf1.geo_195_180 geometry
 -----------------------------------------
 Charge = -1 Multiplicity = 1

                         Standard orientation:
 ---------------------------------------------------------------------
 Center     Atomic      Atomic             Coordinates (Angstroms)
 Number     Number       Type             X           Y           Z
 ---------------------------------------------------------------------
      1          8           0        2.321032   -1.369478   -0.385481
      2          6           0        1.812329   -0.285157    0.018455
      3          8           0        2.434829    0.714700    0.463233
      4          6           0        0.278432   -0.226034   -0.004409
      5          6           0       -0.487084    0.957266   -0.064277
      6          8           0        0.136862    2.167319   -0.180023
      7          1           0       -0.546844    2.850695   -0.253201
      8          6           0       -1.888016    0.894517   -0.037422
      9          1           0       -2.459213    1.817797   -0.091314
     10          6           0       -2.548518   -0.327338    0.055300
     11          1           0       -3.633787   -0.348862    0.081345
     12          6           0       -1.810358   -1.510052    0.105827
     13          1           0       -2.310415   -2.470976    0.172179
     14          6           0       -0.419588   -1.438513    0.064672
     15          1           0        0.185299   -2.337119    0.080286
 ---------------------------------------------------------------------

 SCF Done:  E(RHF) =  -492.674591704     A.U. after   16 cycles
 E2 =    -0.1541701299D+01 EUMP2 =    -0.49421629300333D+03

 The electronic state is 1-A.
 Alpha  occ. eigenvalues --  -20.47065 -20.30914 -20.30749 -11.18508 -11.16033
 Alpha  occ. eigenvalues --  -11.13199 -11.12048 -11.11271 -11.10993 -11.09829
 Alpha  occ. eigenvalues --   -1.27864  -1.17806  -1.07375  -1.02183  -0.89550
 Alpha  occ. eigenvalues --   -0.88011  -0.72039  -0.70693  -0.60595  -0.59094
 Alpha  occ. eigenvalues --   -0.53437  -0.51355  -0.47141  -0.46319  -0.45853
 Alpha  occ. eigenvalues --   -0.43353  -0.40422  -0.39297  -0.37327  -0.36728
 Alpha  occ. eigenvalues --   -0.34630  -0.22461  -0.21575  -0.20368  -0.19504
 Alpha  occ. eigenvalues --   -0.18455
 Alpha virt. eigenvalues --    0.10782   0.11533   0.12628   0.14776   0.15973
 Alpha virt. eigenvalues --    0.20718   0.21312   0.21553   0.21981   0.22480
 Alpha virt. eigenvalues --    0.22526   0.22827   0.23309   0.24136   0.24766

 Mulliken charges:
               1
     1  O   -0.970929
     2  C    0.802313
     3  O   -0.944557
     4  C    0.554807
     5  C    1.018550
     6  O   -0.925392
     7  H    0.166115
     8  C    0.578670
     9  H   -0.667721
    10  C    0.218601
    11  H   -0.451646
    12  C    0.270357
    13  H   -0.452021
    14  C    0.417389
    15  H   -0.614534
 Sum of Mulliken charges =  -1.00000

 Dipole moment (field-independent basis, Debye):
    X=            -11.1771    Y=              1.9193    Z=             -0.2479  Tot=             11.3434
 Quadrupole moment (field-independent basis, Debye-Ang):
   XX=            -91.5245   YY=            -62.7088   ZZ=            -64.8683
   XY=             -0.7192   XZ=             -0.4106   YZ=             -4.0052

 Normal termination of Gaussian 16 at Mon Jul 12 13:03:06 2021.
