 Gaussian 16, Revision A.03,

 ---------------------------------------------------------------
 #p b3lyp/6-31G(d) opt freq scrf=(iefpcm,read,solvent=n-octanol)
 ---------------------------------------------------------------

 ----------------------------------------
 SET_328_BBB87_conf1.geo_075_075 geometry
 ----------------------------------------
 Symbolic Z-matrix:
 Charge =  1 Multiplicity = 1

 SCF Done:  E(RB3LYP) =  -703.481355142     A.U. after   13 cycles
 SCF Done:  E(RB3LYP) =  -703.501667988     A.U. after   12 cycles
 SCF Done:  E(RB3LYP) =  -703.465601384     A.U. after   12 cycles
 SCF Done:  E(RB3LYP) =  -703.505185673     A.U. after   11 cycles
 SCF Done:  E(RB3LYP) =  -703.506341746     A.U. after   11 cycles
 SCF Done:  E(RB3LYP) =  -703.505269587     A.U. after   14 cycles
 SCF Done:  E(RB3LYP) =  -703.506926726     A.U. after   11 cycles
 SCF Done:  E(RB3LYP) =  -703.507242024     A.U. after   12 cycles
 SCF Done:  E(RB3LYP) =  -703.508399355     A.U. after   13 cycles
 SCF Done:  E(RB3LYP) =  -703.509642040     A.U. after   12 cycles
 SCF Done:  E(RB3LYP) =  -703.511276060     A.U. after   10 cycles
 SCF Done:  E(RB3LYP) =  -703.511278286     A.U. after    9 cycles
 SCF Done:  E(RB3LYP) =  -703.511279361     A.U. after    8 cycles
 SCF Done:  E(RB3LYP) =  -703.511283634     A.U. after    8 cycles
 SCF Done:  E(RB3LYP) =  -703.511286321     A.U. after    7 cycles
 SCF Done:  E(RB3LYP) =  -703.511287909     A.U. after    7 cycles
 Optimization completed.
    -- Stationary point found.
 Normal termination of Gaussian 16 at Mon Jul 12 13:17:32 2021.

 --------------------------------------------------------------------
 #P Geom=AllCheck Guess=TCheck SCRF=Check GenChk RB3LYP/6-31G(d) Freq
 --------------------------------------------------------------------

 Structure from the checkpoint file:  "SET_328_BBB87_conf1.geo_075_075.chk"
 ----------------------------------------
 SET_328_BBB87_conf1.geo_075_075 geometry
 ----------------------------------------
 Charge =  1 Multiplicity = 1

 SCF Done:  E(RB3LYP) =  -703.511287909     A.U. after    1 cycles

  Exact polarizability: 117.366  -0.748 100.945   3.133   1.441  54.814
 Approx polarizability: 145.941  -6.874 140.990   4.876   2.195  70.562

                      1                      2                      3
                      A                      A                      A
 Frequencies --     97.2692               192.3088               197.4703
 Red. masses --      4.3984                 2.4296                 3.9562
 Frc consts  --      0.0245                 0.0529                 0.0909
 IR Inten    --     14.2725                10.8678                52.3925

                      4                      5                      6
                      A                      A                      A
 Frequencies --    271.8083               318.2910               437.0380
 Red. masses --      4.4219                 2.7561                 1.2693
 Frc consts  --      0.1925                 0.1645                 0.1428
 IR Inten    --     29.1238                19.3431                 2.3425

                      7                      8                      9
                      A                      A                      A
 Frequencies --    465.8252               507.2269               586.8418
 Red. masses --      1.7625                 4.5014                 5.1227
 Frc consts  --      0.2253                 0.6823                 1.0394
 IR Inten    --      4.9319                 3.0028                 2.9404

                     10                     11                     12
                      A                      A                      A
 Frequencies --    624.6881               711.7631               751.9023
 Red. masses --      4.9044                 3.0161                 1.2752
 Frc consts  --      1.1276                 0.9002                 0.4248
 IR Inten    --     10.6743                 6.8496                44.0433

                     13                     14                     15
                      A                      A                      A
 Frequencies --    766.9291               865.3177               888.5366
 Red. masses --      7.6011                 2.6109                 3.8186
 Frc consts  --      2.6341                 1.1518                 1.7762
 IR Inten    --      8.7536                 4.2622                19.4488

                     16                     17                     18
                      A                      A                      A
 Frequencies --    907.3100               908.9290               972.5555
 Red. masses --      1.3533                 1.6002                 1.4548
 Frc consts  --      0.6564                 0.7789                 0.8108
 IR Inten    --     12.4854                50.6984                 8.0664

                     19                     20                     21
                      A                      A                      A
 Frequencies --   1037.8389              1096.7963              1110.3593
 Red. masses --      3.1665                 1.5695                 1.4724
 Frc consts  --      2.0095                 1.1124                 1.0696
 IR Inten    --      4.0733                92.2235               110.9720

                     22                     23                     24
                      A                      A                      A
 Frequencies --   1152.6061              1173.7635              1220.4390
 Red. masses --      1.3894                 2.0196                 1.8659
 Frc consts  --      1.0876                 1.6393                 1.6375
 IR Inten    --     21.1888                21.6740                 6.5598

                     25                     26                     27
                      A                      A                      A
 Frequencies --   1312.5859              1357.8222              1372.4404
 Red. masses --      1.2682                 1.9920                 1.2906
 Frc consts  --      1.2873                 2.1638                 1.4323
 IR Inten    --     35.6754                 1.5620                39.3123

                     28                     29                     30
                      A                      A                      A
 Frequencies --   1409.7742              1436.3515              1492.1366
 Red. masses --      1.4782                 1.3946                 3.0176
 Frc consts  --      1.7309                 1.6952                 3.9585
 IR Inten    --     16.3059                21.8917                43.1854

                     31                     32                     33
                      A                      A                      A
 Frequencies --   1509.3865              1523.5084              1544.8045
 Red. masses --      1.3468                 1.1059                 1.1659
 Frc consts  --      1.8078                 1.5124                 1.6393
 IR Inten    --      5.9625                 9.3301               332.8287

                     34                     35                     36
                      A                      A                      A
 Frequencies --   1569.5388              1667.7770              1688.4519
 Red. masses --      4.7149                 1.0414                 1.0396
 Frc consts  --      6.8433                 1.7067                 1.7461
 IR Inten    --     10.9581                52.1279                66.9993

                     37                     38                     39
                      A                      A                      A
 Frequencies --   3079.7802              3136.2248              3143.9414
 Red. masses --      1.0682                 1.0774                 1.0784
 Frc consts  --      5.9697                 6.2438                 6.2803
 IR Inten    --     10.0006                 6.6429                19.4041

                     40                     41                     42
                      A                      A                      A
 Frequencies --   3198.4711              3228.5412              3258.1800
 Red. masses --      1.1094                 1.0672                 1.0921
 Frc consts  --      6.6867                 6.5541                 6.8308
 IR Inten    --     43.5656               470.3909                 1.8121

                     43                     44                     45
                      A                      A                      A
 Frequencies --   3302.9740              3438.3813              3487.3469
 Red. masses --      1.0987                 1.0614                 1.0947
 Frc consts  --      7.0622                 7.3935                 7.8438
 IR Inten    --      3.9747               236.5479               189.8106

 - Thermochemistry -
 -------------------
 Temperature   298.150 Kelvin.  Pressure   1.00000 Atm.
 Atom     1 has atomic number  7 and mass  14.00307

 Molecular mass:   129.04865 amu.
 Principal axes and moments of inertia in atomic units:
                           1         2         3
     Eigenvalues --   484.275301543.492351960.63059
           X            0.99983   0.01822   0.00086
           Y           -0.01822   0.99983   0.00064
           Z           -0.00084  -0.00065   1.00000
 This molecule is an asymmetric top.
 Rotational symmetry number  1.
 Warning -- assumption of classical behavior for rotation
           may cause significant error
 Rotational temperatures (Kelvin)      0.17885     0.05612     0.04418
 Rotational constants (GHZ):           3.72668     1.16926     0.92049
 Zero-point vibrational energy     385330.5 (Joules/Mol)
                                   92.09621 (Kcal/Mol)
 Warning -- explicit consideration of   9 degrees of freedom as
           vibrations may cause significant error
 Vibrational temperatures:    139.95   276.69   284.12   391.07   457.95
          (Kelvin)            628.80   670.22   729.79   844.33   898.79
                             1024.07  1081.82  1103.44  1245.00  1278.41
                             1305.42  1307.75  1399.29  1493.22  1578.05
                             1597.56  1658.34  1688.78  1755.94  1888.52
                             1953.60  1974.64  2028.35  2066.59  2146.85
                             2171.67  2191.99  2222.63  2258.22  2399.56
                             2429.31  4431.12  4512.33  4523.43  4601.89
                             4645.15  4687.79  4752.24  4947.06  5017.51

 Zero-point correction=                           0.146765 (Hartree/Particle)
 Thermal correction to Energy=                    0.154145
 Thermal correction to Enthalpy=                  0.155089
 Thermal correction to Gibbs Free Energy=         0.114658
 Sum of electronic and zero-point Energies=           -703.364523
 Sum of electronic and thermal Energies=              -703.357143
 Sum of electronic and thermal Enthalpies=            -703.356199
 Sum of electronic and thermal Free Energies=         -703.396630

                     E (Thermal)             CV                S
                      KCal/Mol        Cal/Mol-Kelvin    Cal/Mol-Kelvin
 Total                   96.727             28.199             85.094
 Electronic               0.000              0.000              0.000
 Translational            0.889              2.981             40.478
 Rotational               0.889              2.981             28.773
 Vibrational             94.950             22.237             15.843
 Vibration     1          0.603              1.951              3.508
 Vibration     2          0.634              1.851              2.205
 Vibration     3          0.637              1.843              2.157
 Vibration     4          0.675              1.725              1.585
 Vibration     5          0.705              1.639              1.319
 Vibration     6          0.797              1.389              0.836
 Vibration     7          0.823              1.326              0.749
 Vibration     8          0.862              1.234              0.640
 Vibration     9          0.944              1.060              0.473

 Optimization completed.
    -- Stationary point found.
 Normal termination of Gaussian 16 at Mon Jul 12 13:22:12 2021.

 ----------------------------------------------------------------------
 #p b3lyp/6-31G(d) scrf=(iefpcm,read,solvent=n-octanol) geom=allcheck g
 uess=read
 ----------------------------------------------------------------------

 Structure from the checkpoint file:  "SET_328_BBB87_conf1.geo_075_075.chk"
 ----------------------------------------
 SET_328_BBB87_conf1.geo_075_075 geometry
 ----------------------------------------
 Charge =  1 Multiplicity = 1

 SCF Done:  E(RB3LYP) =  -703.514013603     A.U. after    1 cycles
 Normal termination of Gaussian 16 at Mon Jul 12 13:22:24 2021.

 -----------------------------
 #p B3LYP/6-31G* geom=allcheck
 -----------------------------

 Structure from the checkpoint file:  "SET_328_BBB87_conf1.geo_075_075.chk"
 ----------------------------------------
 SET_328_BBB87_conf1.geo_075_075 geometry
 ----------------------------------------
 Charge =  1 Multiplicity = 1

 SCF Done:  E(RB3LYP) =  -703.410738499     A.U. after   15 cycles
 Normal termination of Gaussian 16 at Mon Jul 12 13:22:55 2021.
 Gaussian 16:  ES64L-G16RevA.03 25-Dec-2016

 --------------------------------------------------------
 #p mp2/aug-cc-pVDZ scf=tight maxdisk=180GB geom=allcheck
 --------------------------------------------------------

 Structure from the checkpoint file:  "SET_328_BBB87_conf1.geo_075_075.chk"
 ----------------------------------------
 SET_328_BBB87_conf1.geo_075_075 geometry
 ----------------------------------------
 Charge =  1 Multiplicity = 1

                         Standard orientation:
 ---------------------------------------------------------------------
 Center     Atomic      Atomic             Coordinates (Angstroms)
 Number     Number       Type             X           Y           Z
 ---------------------------------------------------------------------
      1          7           0       -2.702170    0.807849   -0.178245
      2          1           0       -1.847620    1.399928   -0.184333
      3          1           0       -3.443685    1.296259    0.339235
      4          6           0       -2.350034   -0.507389    0.454163
      5          1           0       -3.220876   -1.156096    0.378475
      6          1           0       -2.151707   -0.303969    1.506261
      7          6           0       -1.135049   -1.146457   -0.220247
      8          1           0       -1.349750   -1.332456   -1.279245
      9          1           0       -0.978193   -2.126319    0.236139
     10          6           0        0.106774   -0.304300   -0.090417
     11          7           0        0.083908    1.003621   -0.046973
     12          6           0        1.351563    1.532119    0.052345
     13          1           0        1.475907    2.606208    0.101384
     14          6           0        2.364078    0.620842    0.081495
     15          1           0        3.427162    0.792888    0.154553
     16         16           0        1.713611   -0.982998   -0.011917
     17          1           0       -3.025182    0.702341   -1.149295
 ---------------------------------------------------------------------

 SCF Done:  E(RHF) =  -700.831972146     A.U. after   16 cycles
 E2 =    -0.1193031509D+01 EUMP2 =    -0.70202500365569D+03

 The electronic state is 1-A.
 Alpha  occ. eigenvalues --  -92.13079 -15.87217 -15.72841 -11.47940 -11.46870
 Alpha  occ. eigenvalues --  -11.42759 -11.40570 -11.40114  -9.13266  -6.81406
 Alpha  occ. eigenvalues --   -6.81316  -6.81142  -1.48966  -1.42825  -1.24081
 Alpha  occ. eigenvalues --   -1.20061  -1.13732  -1.05252  -0.95575  -0.94387
 Alpha  occ. eigenvalues --   -0.92896  -0.87847  -0.83773  -0.82060  -0.77690
 Alpha  occ. eigenvalues --   -0.74815  -0.73066  -0.70037  -0.68426  -0.67807
 Alpha  occ. eigenvalues --   -0.63406  -0.58002  -0.52639  -0.46803
 Alpha virt. eigenvalues --   -0.09990  -0.07210  -0.06855  -0.05751  -0.04011
 Alpha virt. eigenvalues --   -0.03768  -0.03605  -0.03380  -0.02608  -0.01551
 Alpha virt. eigenvalues --   -0.01401  -0.00051   0.00047   0.01118   0.01702

 Mulliken charges:
               1
     1  N   -0.367397
     2  H    0.248740
     3  H    0.170108
     4  C    0.912635
     5  H   -0.098847
     6  H   -0.140236
     7  C    0.161500
     8  H    0.027673
     9  H    0.050080
    10  C   -0.135566
    11  N   -0.660210
    12  C    0.668002
    13  H   -0.259067
    14  C    0.135707
    15  H   -0.330297
    16  S    0.383619
    17  H    0.233553
 Sum of Mulliken charges =   1.00000

 Dipole moment (field-independent basis, Debye):
    X=             -8.6441    Y=              1.4205    Z=             -0.3731  Tot=              8.7680
 Quadrupole moment (field-independent basis, Debye-Ang):
   XX=            -11.3971   YY=            -44.3744   ZZ=            -53.1694
   XY=             -3.0463   XZ=              1.9820   YZ=             -0.2217

 Normal termination of Gaussian 16 at Mon Jul 12 13:25:47 2021.
