 Gaussian 16, Revision A.03,

 ---------------------------------------------------------------
 #p b3lyp/6-31G(d) opt freq scrf=(iefpcm,read,solvent=n-octanol)
 ---------------------------------------------------------------

 -----------------------------------------
 SET_328_BBB212_conf1.geo_225_225 geometry
 -----------------------------------------
 Symbolic Z-matrix:
 Charge = -1 Multiplicity = 1

 SCF Done:  E(RB3LYP) =  -731.147285317     A.U. after   13 cycles
 SCF Done:  E(RB3LYP) =  -731.176937851     A.U. after   12 cycles
 SCF Done:  E(RB3LYP) =  -731.188721098     A.U. after   12 cycles
 SCF Done:  E(RB3LYP) =  -731.190221787     A.U. after   11 cycles
 SCF Done:  E(RB3LYP) =  -731.190521081     A.U. after   10 cycles
 SCF Done:  E(RB3LYP) =  -731.190752224     A.U. after   10 cycles
 SCF Done:  E(RB3LYP) =  -731.190680730     A.U. after   10 cycles
 SCF Done:  E(RB3LYP) =  -731.190695038     A.U. after    9 cycles
 SCF Done:  E(RB3LYP) =  -731.190751168     A.U. after    9 cycles
 SCF Done:  E(RB3LYP) =  -731.190753217     A.U. after    8 cycles
 SCF Done:  E(RB3LYP) =  -731.190655848     A.U. after   10 cycles
 SCF Done:  E(RB3LYP) =  -731.190752485     A.U. after   10 cycles
 SCF Done:  E(RB3LYP) =  -731.190660900     A.U. after   10 cycles
 SCF Done:  E(RB3LYP) =  -731.190658341     A.U. after    7 cycles
 SCF Done:  E(RB3LYP) =  -731.190752382     A.U. after   10 cycles
 SCF Done:  E(RB3LYP) =  -731.190659149     A.U. after   10 cycles
 Optimization completed.
    -- Stationary point found.
 Normal termination of Gaussian 16 at Mon Jul 12 13:50:32 2021.

 --------------------------------------------------------------------
 #P Geom=AllCheck Guess=TCheck SCRF=Check GenChk RB3LYP/6-31G(d) Freq
 --------------------------------------------------------------------

 Structure from the checkpoint file:  "SET_328_BBB212_conf1.geo_225_225.chk"
 -----------------------------------------
 SET_328_BBB212_conf1.geo_225_225 geometry
 -----------------------------------------
 Charge = -1 Multiplicity = 1

 SCF Done:  E(RB3LYP) =  -731.190659149     A.U. after    1 cycles

  Exact polarizability: 270.751 -15.972 180.967  30.413  -0.797 163.994
 Approx polarizability: 320.047 -24.147 236.010  42.368  -3.630 219.951

                      1                      2                      3
                      A                      A                      A
 Frequencies --     23.2397                44.9769                54.3481
 Red. masses --      3.6608                 7.6185                 3.7698
 Frc consts  --      0.0012                 0.0091                 0.0066
 IR Inten    --      0.5900                 6.7019                 0.2540

                      4                      5                      6
                      A                      A                      A
 Frequencies --     98.1696               150.9112               182.7035
 Red. masses --      4.7043                 5.6175                 4.3209
 Frc consts  --      0.0267                 0.0754                 0.0850
 IR Inten    --      0.9318                 2.1372                 1.5431

                      7                      8                      9
                      A                      A                      A
 Frequencies --    219.5273               265.5648               280.5129
 Red. masses --      2.7874                 2.9369                 3.4446
 Frc consts  --      0.0791                 0.1220                 0.1597
 IR Inten    --      0.0154                 0.3842                 3.2183

                     10                     11                     12
                      A                      A                      A
 Frequencies --    287.9947               309.6324               331.9248
 Red. masses --      1.7991                 1.2503                 1.8897
 Frc consts  --      0.0879                 0.0706                 0.1227
 IR Inten    --      1.5549                 0.3898                 1.5311

                     13                     14                     15
                      A                      A                      A
 Frequencies --    347.5752               361.0588               371.2846
 Red. masses --      2.7675                 1.0846                 3.9014
 Frc consts  --      0.1970                 0.0833                 0.3169
 IR Inten    --      1.8683               160.3733                 0.9823

                     16                     17                     18
                      A                      A                      A
 Frequencies --    416.2497               424.1153               433.3180
 Red. masses --      4.0033                 3.1633                 3.3874
 Frc consts  --      0.4087                 0.3352                 0.3747
 IR Inten    --     16.5886                 0.3079                 1.0268

                     19                     20                     21
                      A                      A                      A
 Frequencies --    446.6761               480.0353               492.1018
 Red. masses --      4.7859                 3.7321                 3.4185
 Frc consts  --      0.5626                 0.5067                 0.4878
 IR Inten    --      2.3114                 1.7199                 1.8503

                     22                     23                     24
                      A                      A                      A
 Frequencies --    541.6490               559.8713               573.6244
 Red. masses --      4.0963                 2.2853                 2.3578
 Frc consts  --      0.7081                 0.4221                 0.4571
 IR Inten    --     14.7788                32.2279                22.6147

                     25                     26                     27
                      A                      A                      A
 Frequencies --    648.9770               651.0148               657.0847
 Red. masses --      6.3161                 5.9807                 6.8370
 Frc consts  --      1.5673                 1.4934                 1.7392
 IR Inten    --      3.3407                 3.4203                 1.7107

                     28                     29                     30
                      A                      A                      A
 Frequencies --    737.2967               751.0848               765.6000
 Red. masses --      4.1648                 3.8379                 2.7091
 Frc consts  --      1.3339                 1.2756                 0.9356
 IR Inten    --      9.5332                 2.7443                17.4789

                     31                     32                     33
                      A                      A                      A
 Frequencies --    814.7372               816.2745               842.0477
 Red. masses --      1.3466                 1.2462                 2.5041
 Frc consts  --      0.5267                 0.4892                 1.0461
 IR Inten    --     13.9415                 0.1381                41.7900

                     34                     35                     36
                      A                      A                      A
 Frequencies --    845.2505               846.6200               852.5267
 Red. masses --      2.2782                 2.7126                 4.2985
 Frc consts  --      0.9590                 1.1456                 1.8407
 IR Inten    --     39.3450                19.8120                14.2304

                     37                     38                     39
                      A                      A                      A
 Frequencies --    923.1578               933.6062               940.4317
 Red. masses --      1.6652                 1.4854                 1.2929
 Frc consts  --      0.8361                 0.7628                 0.6737
 IR Inten    --      3.5755                 2.3418                 0.0013

                     40                     41                     42
                      A                      A                      A
 Frequencies --    942.7077               950.5548               968.0871
 Red. masses --      1.4492                 1.4726                 1.3054
 Frc consts  --      0.7588                 0.7840                 0.7208
 IR Inten    --      0.8346                 2.2990                 1.5254

                     43                     44                     45
                      A                      A                      A
 Frequencies --   1002.6503              1026.5244              1033.6702
 Red. masses --      2.8740                 1.5625                 2.1005
 Frc consts  --      1.7023                 0.9701                 1.3223
 IR Inten    --      6.3143                 2.8811                 5.9549

                     46                     47                     48
                      A                      A                      A
 Frequencies --   1103.1940              1121.0144              1128.6218
 Red. masses --      1.8905                 1.7253                 1.3490
 Frc consts  --      1.3556                 1.2774                 1.0124
 IR Inten    --     26.7289                10.2383                 4.1427

                     49                     50                     51
                      A                      A                      A
 Frequencies --   1132.6558              1167.7236              1204.1380
 Red. masses --      2.2422                 2.0492                 1.4883
 Frc consts  --      1.6948                 1.6463                 1.2714
 IR Inten    --      0.3277                14.6345               322.8867

                     52                     53                     54
                      A                      A                      A
 Frequencies --   1206.3126              1211.5521              1254.4947
 Red. masses --      1.2300                 1.1642                 3.3757
 Frc consts  --      1.0546                 1.0069                 3.1301
 IR Inten    --     81.4481                 7.3712                10.9851

                     55                     56                     57
                      A                      A                      A
 Frequencies --   1265.3701              1273.5126              1304.0797
 Red. masses --      3.4666                 2.7453                 3.2714
 Frc consts  --      3.2703                 2.6233                 3.2778
 IR Inten    --     33.9949                18.8028               103.3314

                     58                     59                     60
                      A                      A                      A
 Frequencies --   1341.7983              1343.5116              1377.6642
 Red. masses --      1.7386                 1.9306                 2.5383
 Frc consts  --      1.8443                 2.0532                 2.8384
 IR Inten    --     25.0150                32.9249                84.8904

                     61                     62                     63
                      A                      A                      A
 Frequencies --   1408.3769              1420.5366              1424.5025
 Red. masses --      1.2536                 2.5353                 1.3617
 Frc consts  --      1.4650                 3.0143                 1.6280
 IR Inten    --     12.3920               184.3565                46.4803

                     64                     65                     66
                      A                      A                      A
 Frequencies --   1468.4792              1475.6904              1509.2621
 Red. masses --      3.5111                 2.7664                 1.0573
 Frc consts  --      4.4610                 3.5494                 1.4190
 IR Inten    --     13.5120                35.8072                 4.3919

                     67                     68                     69
                      A                      A                      A
 Frequencies --   1518.9121              1525.0649              1530.6088
 Red. masses --      1.0743                 1.0661                 1.0715
 Frc consts  --      1.4603                 1.4609                 1.4790
 IR Inten    --      6.2469                 8.1762                16.4001

                     70                     71                     72
                      A                      A                      A
 Frequencies --   1554.7501              1560.8595              1572.9372
 Red. masses --      4.7528                 2.4464                 3.7458
 Frc consts  --      6.7689                 3.5117                 5.4603
 IR Inten    --    183.8608               149.4085               390.3632

                     73                     74                     75
                      A                      A                      A
 Frequencies --   1646.8886              1656.8621              1672.6519
 Red. masses --      6.0305                 5.7830                 5.9716
 Frc consts  --      9.6368                 9.3536                 9.8436
 IR Inten    --     32.0371               388.9300                46.9400

                     76                     77                     78
                      A                      A                      A
 Frequencies --   3058.8845              3064.9447              3128.0399
 Red. masses --      1.0343                 1.0358                 1.1016
 Frc consts  --      5.7017                 5.7331                 6.3506
 IR Inten    --     36.9012                51.5195                 8.4244

                     79                     80                     81
                      A                      A                      A
 Frequencies --   3131.9814              3134.2460              3142.4905
 Red. masses --      1.1021                 1.1022                 1.0951
 Frc consts  --      6.3694                 6.3794                 6.3716
 IR Inten    --     83.3100               104.4969                30.7714

                     82                     83                     84
                      A                      A                      A
 Frequencies --   3145.9927              3157.0982              3169.6630
 Red. masses --      1.0922                 1.0865                 1.0923
 Frc consts  --      6.3691                 6.3803                 6.4660
 IR Inten    --     66.9759                57.1716                99.8560

                     85                     86                     87
                      A                      A                      A
 Frequencies --   3188.7912              3194.8333              3207.5944
 Red. masses --      1.0904                 1.0886                 1.0877
 Frc consts  --      6.5324                 6.5463                 6.5932
 IR Inten    --     54.9804                34.8394                 8.0489

                     88                     89                     90
                      A                      A                      A
 Frequencies --   3227.0656              3229.2950              3750.3931
 Red. masses --      1.0920                 1.0920                 1.0659
 Frc consts  --      6.7000                 6.7092                 8.8335
 IR Inten    --     44.1105                 3.9269               107.4538

 - Thermochemistry -
 -------------------
 Temperature   298.150 Kelvin.  Pressure   1.00000 Atm.
 Atom     1 has atomic number  6 and mass  12.00000

 Molecular mass:   227.10720 amu.
 Principal axes and moments of inertia in atomic units:
                           1         2         3
     Eigenvalues --  2039.939396978.161737863.38278
           X            0.99997   0.00453   0.00651
           Y           -0.00454   0.99999   0.00073
           Z           -0.00651  -0.00076   0.99998
 This molecule is an asymmetric top.
 Rotational symmetry number  1.
 Warning -- assumption of classical behavior for rotation
           may cause significant error
 Rotational temperatures (Kelvin)      0.04246     0.01241     0.01101
 Rotational constants (GHZ):           0.88470     0.25863     0.22951
 Zero-point vibrational energy     687615.4 (Joules/Mol)
                                  164.34401 (Kcal/Mol)
 Warning -- explicit consideration of  24 degrees of freedom as
           vibrations may cause significant error
 Vibrational temperatures:     33.44    64.71    78.19   141.24   217.13
          (Kelvin)            262.87   315.85   382.09   403.60   414.36
                              445.49   477.57   500.08   519.48   534.20
                              598.89   610.21   623.45   642.67   690.66
                              708.02   779.31   805.53   825.32   933.73
                              936.67   945.40  1060.81  1080.64  1101.53
                             1172.23  1174.44  1211.52  1216.13  1218.10
                             1226.60  1328.22  1343.25  1353.07  1356.35
                             1367.64  1392.86  1442.59  1476.94  1487.22
                             1587.25  1612.89  1623.84  1629.64  1680.09
                             1732.49  1735.61  1743.15  1804.94  1820.59
                             1832.30  1876.28  1930.55  1933.01  1982.15
                             2026.34  2043.84  2049.54  2112.81  2123.19
                             2171.49  2185.38  2194.23  2202.20  2236.94
                             2245.73  2263.11  2369.51  2383.85  2406.57
                             4401.05  4409.77  4500.55  4506.22  4509.48
                             4521.34  4526.38  4542.36  4560.44  4587.96
                             4596.65  4615.01  4643.03  4646.24  5395.98

 Zero-point correction=                           0.261899 (Hartree/Particle)
 Thermal correction to Energy=                    0.276905
 Thermal correction to Enthalpy=                  0.277849
 Thermal correction to Gibbs Free Energy=         0.219238
 Sum of electronic and zero-point Energies=           -730.928760
 Sum of electronic and thermal Energies=              -730.913754
 Sum of electronic and thermal Enthalpies=            -730.912810
 Sum of electronic and thermal Free Energies=         -730.971421

                     E (Thermal)             CV                S
                      KCal/Mol        Cal/Mol-Kelvin    Cal/Mol-Kelvin
 Total                  173.761             60.253            123.358
 Electronic               0.000              0.000              0.000
 Translational            0.889              2.981             42.163
 Rotational               0.889              2.981             33.081
 Vibrational            171.983             54.291             48.114
 Vibration     1          0.593              1.985              6.336
 Vibration     2          0.595              1.979              5.027
 Vibration     3          0.596              1.976              4.653
 Vibration     4          0.604              1.950              3.490
 Vibration     5          0.618              1.902              2.661
 Vibration     6          0.630              1.863              2.301
 Vibration     7          0.647              1.811              1.963
 Vibration     8          0.671              1.736              1.625
 Vibration     9          0.680              1.710              1.531
 Vibration    10          0.685              1.696              1.486
 Vibration    11          0.699              1.655              1.364
 Vibration    12          0.714              1.612              1.251
 Vibration    13          0.725              1.580              1.177
 Vibration    14          0.735              1.552              1.118
 Vibration    15          0.743              1.531              1.074
 Vibration    16          0.779              1.435              0.905
 Vibration    17          0.786              1.418              0.878
 Vibration    18          0.794              1.398              0.848
 Vibration    19          0.806              1.368              0.806
 Vibration    20          0.836              1.294              0.710
 Vibration    21          0.848              1.268              0.678
 Vibration    22          0.897              1.158              0.562
 Vibration    23          0.915              1.118              0.524
 Vibration    24          0.930              1.088              0.497

 Optimization completed.
    -- Stationary point found.
 Normal termination of Gaussian 16 at Mon Jul 12 14:25:23 2021.

 ----------------------------------------------------------------------
 #p b3lyp/6-31G(d) scrf=(iefpcm,read,solvent=n-octanol) geom=allcheck g
 uess=read
 ----------------------------------------------------------------------

 Structure from the checkpoint file:  "SET_328_BBB212_conf1.geo_225_225.chk"
 -----------------------------------------
 SET_328_BBB212_conf1.geo_225_225 geometry
 -----------------------------------------
 Charge = -1 Multiplicity = 1

 SCF Done:  E(RB3LYP) =  -731.190659149     A.U. after    1 cycles
 Normal termination of Gaussian 16 at Mon Jul 12 14:26:33 2021.

 -----------------------------
 #p B3LYP/6-31G* geom=allcheck
 -----------------------------

 Structure from the checkpoint file:  "SET_328_BBB212_conf1.geo_225_225.chk"
 -----------------------------------------
 SET_328_BBB212_conf1.geo_225_225 geometry
 -----------------------------------------
 Charge = -1 Multiplicity = 1

 SCF Done:  E(RB3LYP) =  -731.090854210     A.U. after   19 cycles
 Normal termination of Gaussian 16 at Mon Jul 12 14:29:30 2021.
 Gaussian 16:  ES64L-G16RevA.03 25-Dec-2016

 --------------------------------------------------------
 #p mp2/aug-cc-pVDZ scf=tight maxdisk=180GB geom=allcheck
 --------------------------------------------------------

 Structure from the checkpoint file:  "SET_328_BBB212_conf1.geo_225_225.chk"
 -----------------------------------------
 SET_328_BBB212_conf1.geo_225_225 geometry
 -----------------------------------------
 Charge = -1 Multiplicity = 1

                         Standard orientation:
 ---------------------------------------------------------------------
 Center     Atomic      Atomic             Coordinates (Angstroms)
 Number     Number       Type             X           Y           Z
 ---------------------------------------------------------------------
      1          6           0       -0.023841    2.302807    1.288783
      2          1           0       -0.923061    2.925083    1.258291
      3          1           0        0.846601    2.963254    1.350481
      4          1           0       -0.058806    1.702229    2.202969
      5          6           0        0.045170    1.418287    0.025162
      6          6           0        0.095342    2.364453   -1.192298
      7          1           0        1.003782    2.970067   -1.143490
      8          1           0       -0.761080    3.044990   -1.216893
      9          1           0        0.115755    1.804478   -2.130980
     10          6           0       -1.225072    0.547706    0.001889
     11          6           0       -2.332410    0.827672   -0.805992
     12          6           0       -3.491647    0.047694   -0.762796
     13          6           0       -3.569680   -1.038115    0.107990
     14          8           0       -4.673818   -1.842752    0.203523
     15          1           0       -5.350727   -1.527468   -0.416451
     16          6           0       -2.475522   -1.338427    0.927354
     17          6           0       -1.328620   -0.556839    0.864046
     18          1           0       -0.476880   -0.812074    1.485749
     19          1           0       -2.537485   -2.188604    1.596760
     20          1           0       -4.330851    0.287749   -1.409085
     21          1           0       -2.303902    1.667776   -1.490311
     22          6           0        1.302409    0.538745    0.013685
     23          6           0        2.309223    0.601952    0.988860
     24          1           0        2.195986    1.282487    1.828497
     25          6           0        3.461595   -0.175910    0.922304
     26          1           0        4.215609   -0.091764    1.702623
     27          6           0        3.714233   -1.100634   -0.147222
     28          8           0        4.776295   -1.819228   -0.225007
     29          6           0        2.662312   -1.148857   -1.130243
     30          1           0        2.789568   -1.834758   -1.965772
     31          6           0        1.521800   -0.364710   -1.044589
     32          1           0        0.763922   -0.452535   -1.822117
 ---------------------------------------------------------------------

 SCF Done:  E(RHF) =  -726.570688254     A.U. after   20 cycles
 E2 =    -0.2501324686D+01 EUMP2 =    -0.72907201293935D+03

 The electronic state is 1-A.
 Alpha  occ. eigenvalues --  -20.52161 -20.30357 -11.21784 -11.15161 -11.15000
 Alpha  occ. eigenvalues --  -11.14437 -11.14315 -11.14138 -11.13945 -11.11980
 Alpha  occ. eigenvalues --  -11.11978 -11.11686 -11.09017 -11.08902 -11.07070
 Alpha  occ. eigenvalues --  -11.05720 -11.05303  -1.32659  -1.11779  -1.06265
 Alpha  occ. eigenvalues --   -1.00394  -0.95058  -0.92783  -0.89438  -0.85230
 Alpha  occ. eigenvalues --   -0.82771  -0.81190  -0.75509  -0.74406  -0.67899
 Alpha  occ. eigenvalues --   -0.65934  -0.64530  -0.61902  -0.58179  -0.54967
 Alpha  occ. eigenvalues --   -0.52522  -0.52449  -0.50776  -0.49573  -0.49317
 Alpha  occ. eigenvalues --   -0.47748  -0.46657  -0.46083  -0.45158  -0.43588
 Alpha  occ. eigenvalues --   -0.43059  -0.41597  -0.40081  -0.39278  -0.37444
 Alpha  occ. eigenvalues --   -0.37257  -0.36816  -0.35018  -0.33173  -0.32395
 Alpha  occ. eigenvalues --   -0.27191  -0.24840  -0.21404  -0.20171  -0.18189
 Alpha  occ. eigenvalues --   -0.09464
 Alpha virt. eigenvalues --    0.08864   0.10580   0.11261   0.11927   0.12309
 Alpha virt. eigenvalues --    0.12965   0.13629   0.14071   0.14742   0.14959
 Alpha virt. eigenvalues --    0.15550   0.16424   0.16856   0.17053   0.17594

 Mulliken charges:
               1
     1  C    0.882895
     2  H   -0.212027
     3  H   -0.044893
     4  H   -0.006402
     5  C   -0.502607
     6  C    1.037005
     7  H   -0.210839
     8  H   -0.078058
     9  H   -0.044790
    10  C    0.959469
    11  C    0.669076
    12  C   -0.001541
    13  C    0.667849
    14  O   -0.940380
    15  H    0.171822
    16  C    0.297147
    17  C    0.398643
    18  H   -0.747430
    19  H   -0.500687
    20  H   -0.610094
    21  H   -0.832596
    22  C    1.004554
    23  C    0.662186
    24  H   -0.909704
    25  C    0.120620
    26  H   -0.546730
    27  C    0.423522
    28  O   -1.147879
    29  C    0.189899
    30  H   -0.550121
    31  C    0.228759
    32  H   -0.826665
 Sum of Mulliken charges =  -1.00000

 Dipole moment (field-independent basis, Debye):
    X=            -15.7375    Y=              6.0568    Z=             -0.2038  Tot=             16.8640
 Quadrupole moment (field-independent basis, Debye-Ang):
   XX=           -184.1612   YY=           -123.0783   ZZ=           -107.1005
   XY=             23.1401   XZ=             11.4699   YZ=             -1.1338

 Normal termination of Gaussian 16 at Mon Jul 12 15:26:01 2021.
