 Gaussian 16, Revision A.03,

 ---------------------------------------------------------------
 #p b3lyp/6-31G(d) opt freq scrf=(iefpcm,read,solvent=n-octanol)
 ---------------------------------------------------------------

 ----------------------------------------
 SET_328_BBB87_conf1.geo_180_090 geometry
 ----------------------------------------
 Symbolic Z-matrix:
 Charge =  1 Multiplicity = 1

 SCF Done:  E(RB3LYP) =  -703.465884971     A.U. after   13 cycles
 SCF Done:  E(RB3LYP) =  -703.496684824     A.U. after   12 cycles
 SCF Done:  E(RB3LYP) =  -703.473350946     A.U. after   12 cycles
 SCF Done:  E(RB3LYP) =  -703.505448335     A.U. after   11 cycles
 SCF Done:  E(RB3LYP) =  -703.506076689     A.U. after   11 cycles
 SCF Done:  E(RB3LYP) =  -703.506263106     A.U. after   10 cycles
 SCF Done:  E(RB3LYP) =  -703.506384996     A.U. after   11 cycles
 SCF Done:  E(RB3LYP) =  -703.506470924     A.U. after    9 cycles
 SCF Done:  E(RB3LYP) =  -703.506534876     A.U. after   10 cycles
 SCF Done:  E(RB3LYP) =  -703.506572612     A.U. after   10 cycles
 SCF Done:  E(RB3LYP) =  -703.507209272     A.U. after    9 cycles
 SCF Done:  E(RB3LYP) =  -703.507215391     A.U. after    8 cycles
 SCF Done:  E(RB3LYP) =  -703.507214077     A.U. after    8 cycles
 SCF Done:  E(RB3LYP) =  -703.507214381     A.U. after    7 cycles
 SCF Done:  E(RB3LYP) =  -703.507215376     A.U. after    8 cycles
 SCF Done:  E(RB3LYP) =  -703.507214199     A.U. after    8 cycles
 Optimization completed.
    -- Stationary point found.
 Normal termination of Gaussian 16 at Mon Jul 12 13:46:51 2021.

 --------------------------------------------------------------------
 #P Geom=AllCheck Guess=TCheck SCRF=Check GenChk RB3LYP/6-31G(d) Freq
 --------------------------------------------------------------------

 Structure from the checkpoint file:  "SET_328_BBB87_conf1.geo_180_090.chk"
 ----------------------------------------
 SET_328_BBB87_conf1.geo_180_090 geometry
 ----------------------------------------
 Charge =  1 Multiplicity = 1

 SCF Done:  E(RB3LYP) =  -703.507214199     A.U. after    1 cycles

  Exact polarizability: 116.512   1.388  99.333  -3.025   0.913  54.484
 Approx polarizability: 139.997  -4.790 145.066  -4.850   2.723  70.582

                      1                      2                      3
                      A                      A                      A
 Frequencies --    106.7873               152.6634               166.6897
 Red. masses --      2.9968                 4.1627                 2.2453
 Frc consts  --      0.0201                 0.0572                 0.0368
 IR Inten    --      7.0668                18.8388                15.9532

                      4                      5                      6
                      A                      A                      A
 Frequencies --    266.3402               322.0840               365.9094
 Red. masses --      3.1570                 5.8480                 1.0648
 Frc consts  --      0.1319                 0.3574                 0.0840
 IR Inten    --      1.5474                28.4357                 0.2741

                      7                      8                      9
                      A                      A                      A
 Frequencies --    390.1595               504.1075               602.1492
 Red. masses --      3.2851                 4.2103                 8.6473
 Frc consts  --      0.2946                 0.6304                 1.8473
 IR Inten    --      4.7668                 3.5646                 1.0236

                     10                     11                     12
                      A                      A                      A
 Frequencies --    616.8926               741.6503               749.1038
 Red. masses --      4.0315                 1.4171                 4.1574
 Frc consts  --      0.9039                 0.4592                 1.3745
 IR Inten    --     13.0314                42.7762                 8.5749

                     13                     14                     15
                      A                      A                      A
 Frequencies --    780.5291               798.6864               886.6814
 Red. masses --      4.9260                 1.2768                 4.5742
 Frc consts  --      1.7681                 0.4799                 2.1188
 IR Inten    --      9.6474                10.6451                 3.7189

                     16                     17                     18
                      A                      A                      A
 Frequencies --    905.3414               944.0592               965.8330
 Red. masses --      1.3106                 2.5087                 1.2152
 Frc consts  --      0.6329                 1.3173                 0.6679
 IR Inten    --      2.0901                39.7996                23.5818

                     19                     20                     21
                      A                      A                      A
 Frequencies --   1037.3042              1083.4648              1100.0175
 Red. masses --      3.0589                 2.0563                 1.4031
 Frc consts  --      1.9392                 1.4222                 1.0003
 IR Inten    --     18.4836                44.0884                 2.7278

                     22                     23                     24
                      A                      A                      A
 Frequencies --   1138.0549              1191.1715              1214.4379
 Red. masses --      1.4798                 1.9420                 2.0806
 Frc consts  --      1.1293                 1.6235                 1.8080
 IR Inten    --     13.0570               101.3934                11.7317

                     25                     26                     27
                      A                      A                      A
 Frequencies --   1338.9292              1351.5092              1356.7951
 Red. masses --      1.3783                 1.1773                 1.5991
 Frc consts  --      1.4559                 1.2670                 1.7344
 IR Inten    --      9.6508                 5.4605                 1.2092

                     28                     29                     30
                      A                      A                      A
 Frequencies --   1387.9223              1435.3203              1498.5086
 Red. masses --      1.3769                 1.5178                 1.8834
 Frc consts  --      1.5628                 1.8423                 2.4918
 IR Inten    --      8.1169                22.5977                18.8537

                     31                     32                     33
                      A                      A                      A
 Frequencies --   1508.9280              1521.9401              1574.4805
 Red. masses --      1.8203                 1.1014                 5.6144
 Frc consts  --      2.4419                 1.5031                 8.2003
 IR Inten    --      1.3555                 7.7330                37.6868

                     34                     35                     36
                      A                      A                      A
 Frequencies --   1592.1385              1654.5908              1693.9108
 Red. masses --      1.1568                 1.0419                 1.0331
 Frc consts  --      1.7277                 1.6805                 1.7464
 IR Inten    --    218.9921                75.2567                83.3264

                     37                     38                     39
                      A                      A                      A
 Frequencies --   3062.9804              3123.0665              3140.8255
 Red. masses --      1.0678                 1.0942                 1.0609
 Frc consts  --      5.9024                 6.2877                 6.1660
 IR Inten    --     13.1268                 8.4972                 6.4327

                     40                     41                     42
                      A                      A                      A
 Frequencies --   3200.6223              3252.2486              3308.2929
 Red. masses --      1.1098                 1.0922                 1.0979
 Frc consts  --      6.6982                 6.8065                 7.0795
 IR Inten    --      4.7742                 9.9887                 2.3824

                     43                     44                     45
                      A                      A                      A
 Frequencies --   3396.0456              3462.4288              3485.3230
 Red. masses --      1.0347                 1.0939                 1.0935
 Frc consts  --      7.0310                 7.7268                 7.8261
 IR Inten    --    124.1335               197.3314               184.6361

 - Thermochemistry -
 -------------------
 Temperature   298.150 Kelvin.  Pressure   1.00000 Atm.
 Atom     1 has atomic number  7 and mass  14.00307

 Molecular mass:   129.04865 amu.
 Principal axes and moments of inertia in atomic units:
                           1         2         3
     Eigenvalues --   396.464751974.297952328.85380
           X            0.99990   0.01390  -0.00008
           Y           -0.01390   0.99988  -0.00690
           Z           -0.00002   0.00690   0.99998
 This molecule is an asymmetric top.
 Rotational symmetry number  1.
 Rotational temperatures (Kelvin)      0.21847     0.04387     0.03719
 Rotational constants (GHZ):           4.55208     0.91412     0.77495
 Zero-point vibrational energy     385059.5 (Joules/Mol)
                                   92.03143 (Kcal/Mol)
 Warning -- explicit consideration of  10 degrees of freedom as
           vibrations may cause significant error
 Vibrational temperatures:    153.64   219.65   239.83   383.20   463.41
          (Kelvin)            526.46   561.35   725.30   866.36   887.57
                             1067.07  1077.79  1123.01  1149.13  1275.74
                             1302.58  1358.29  1389.62  1492.45  1558.86
                             1582.68  1637.41  1713.83  1747.31  1926.42
                             1944.52  1952.13  1996.91  2065.11  2156.02
                             2171.01  2189.73  2265.33  2290.73  2380.59
                             2437.16  4406.95  4493.40  4518.95  4604.98
                             4679.26  4759.90  4886.15  4981.66  5014.60

 Zero-point correction=                           0.146661 (Hartree/Particle)
 Thermal correction to Energy=                    0.154278
 Thermal correction to Enthalpy=                  0.155222
 Thermal correction to Gibbs Free Energy=         0.114171
 Sum of electronic and zero-point Energies=           -703.360553
 Sum of electronic and thermal Energies=              -703.352936
 Sum of electronic and thermal Enthalpies=            -703.351992
 Sum of electronic and thermal Free Energies=         -703.393043

                     E (Thermal)             CV                S
                      KCal/Mol        Cal/Mol-Kelvin    Cal/Mol-Kelvin
 Total                   96.811             28.608             86.399
 Electronic               0.000              0.000              0.000
 Translational            0.889              2.981             40.478
 Rotational               0.889              2.981             28.990
 Vibrational             95.033             22.646             16.930
 Vibration     1          0.606              1.944              3.326
 Vibration     2          0.619              1.900              2.639
 Vibration     3          0.624              1.883              2.472
 Vibration     4          0.672              1.735              1.620
 Vibration     5          0.707              1.631              1.300
 Vibration     6          0.739              1.542              1.097
 Vibration     7          0.758              1.491              1.000
 Vibration     8          0.859              1.241              0.648
 Vibration     9          0.960              1.027              0.446
 Vibration    10          0.977              0.996              0.422

 Optimization completed.
    -- Stationary point found.
 Normal termination of Gaussian 16 at Mon Jul 12 13:51:00 2021.

 ----------------------------------------------------------------------
 #p b3lyp/6-31G(d) scrf=(iefpcm,read,solvent=n-octanol) geom=allcheck g
 uess=read
 ----------------------------------------------------------------------

 Structure from the checkpoint file:  "SET_328_BBB87_conf1.geo_180_090.chk"
 ----------------------------------------
 SET_328_BBB87_conf1.geo_180_090 geometry
 ----------------------------------------
 Charge =  1 Multiplicity = 1

 SCF Done:  E(RB3LYP) =  -703.510015750     A.U. after    1 cycles
 Normal termination of Gaussian 16 at Mon Jul 12 13:51:13 2021.

 -----------------------------
 #p B3LYP/6-31G* geom=allcheck
 -----------------------------

 Structure from the checkpoint file:  "SET_328_BBB87_conf1.geo_180_090.chk"
 ----------------------------------------
 SET_328_BBB87_conf1.geo_180_090 geometry
 ----------------------------------------
 Charge =  1 Multiplicity = 1

 SCF Done:  E(RB3LYP) =  -703.389409188     A.U. after   15 cycles
 Normal termination of Gaussian 16 at Mon Jul 12 13:51:41 2021.
 Gaussian 16:  ES64L-G16RevA.03 25-Dec-2016

 --------------------------------------------------------
 #p mp2/aug-cc-pVDZ scf=tight maxdisk=180GB geom=allcheck
 --------------------------------------------------------

 Structure from the checkpoint file:  "SET_328_BBB87_conf1.geo_180_090.chk"
 ----------------------------------------
 SET_328_BBB87_conf1.geo_180_090 geometry
 ----------------------------------------
 Charge =  1 Multiplicity = 1

                         Standard orientation:
 ---------------------------------------------------------------------
 Center     Atomic      Atomic             Coordinates (Angstroms)
 Number     Number       Type             X           Y           Z
 ---------------------------------------------------------------------
      1          7           0       -3.595855   -0.031096   -0.014993
      2          1           0       -3.812144   -0.826164   -0.632099
      3          1           0       -4.272495    0.711000   -0.239194
      4          6           0       -2.184362    0.457419   -0.178352
      5          1           0       -2.062774    1.325719    0.466938
      6          1           0       -2.076034    0.781044   -1.213331
      7          6           0       -1.174916   -0.633351    0.174436
      8          1           0       -1.290092   -1.492236   -0.492508
      9          1           0       -1.356230   -0.997732    1.193470
     10          6           0        0.225551   -0.089063    0.078283
     11          7           0        0.509808    1.182267    0.103930
     12          6           0        1.869645    1.390898    0.025581
     13          1           0        2.250346    2.404345    0.033653
     14          6           0        2.638489    0.269789   -0.060028
     15          1           0        3.711943    0.190909   -0.130917
     16         16           0        1.628599   -1.137348   -0.049746
     17          1           0       -3.794211   -0.331665    0.947844
 ---------------------------------------------------------------------

 SCF Done:  E(RHF) =  -700.815473431     A.U. after   15 cycles
 E2 =    -0.1188875194D+01 EUMP2 =    -0.70200434862574D+03

 The electronic state is 1-A.
 Alpha  occ. eigenvalues --  -92.11165 -15.90415 -15.70303 -11.48152 -11.44884
 Alpha  occ. eigenvalues --  -11.42629 -11.38484 -11.38304  -9.11368  -6.79514
 Alpha  occ. eigenvalues --   -6.79428  -6.79247  -1.51362  -1.40688  -1.24048
 Alpha  occ. eigenvalues --   -1.18028  -1.12483  -1.05261  -0.97081  -0.96145
 Alpha  occ. eigenvalues --   -0.91825  -0.85637  -0.85018  -0.80830  -0.79585
 Alpha  occ. eigenvalues --   -0.73271  -0.71173  -0.69618  -0.66973  -0.65966
 Alpha  occ. eigenvalues --   -0.61522  -0.55226  -0.50515  -0.44944
 Alpha virt. eigenvalues --   -0.11621  -0.07851  -0.07740  -0.06307  -0.03786
 Alpha virt. eigenvalues --   -0.03551  -0.03363  -0.03192  -0.02220  -0.02018
 Alpha virt. eigenvalues --   -0.01019  -0.00956   0.00571   0.01963   0.02133

 Mulliken charges:
               1
     1  N   -0.503610
     2  H    0.218551
     3  H    0.176665
     4  C    1.225331
     5  H   -0.070020
     6  H   -0.126634
     7  C    0.009467
     8  H   -0.017910
     9  H    0.043144
    10  C   -0.192577
    11  N   -0.682910
    12  C    0.789621
    13  H   -0.247231
    14  C    0.144586
    15  H   -0.338997
    16  S    0.358705
    17  H    0.213821
 Sum of Mulliken charges =   1.00000

 Dipole moment (field-independent basis, Debye):
    X=            -13.0396    Y=             -0.8597    Z=             -0.1859  Tot=             13.0693
 Quadrupole moment (field-independent basis, Debye-Ang):
   XX=             14.2704   YY=            -50.6359   ZZ=            -53.5846
   XY=              2.9995   XZ=             -0.1527   YZ=             -0.2535

 Normal termination of Gaussian 16 at Mon Jul 12 13:54:14 2021.
