 Gaussian 16, Revision A.03,

 ---------------------------------------------------------------
 #p b3lyp/6-31G(d) opt freq scrf=(iefpcm,read,solvent=n-octanol)
 ---------------------------------------------------------------

 -----------------------------------------
 SET_328_BBB212_conf1.geo_060_225 geometry
 -----------------------------------------
 Symbolic Z-matrix:
 Charge = -1 Multiplicity = 1

 SCF Done:  E(RB3LYP) =  -731.151396336     A.U. after   13 cycles
 SCF Done:  E(RB3LYP) =  -731.179129322     A.U. after   12 cycles
 SCF Done:  E(RB3LYP) =  -731.188424254     A.U. after   11 cycles
 SCF Done:  E(RB3LYP) =  -731.189805222     A.U. after   11 cycles
 SCF Done:  E(RB3LYP) =  -731.190613905     A.U. after   11 cycles
 SCF Done:  E(RB3LYP) =  -731.190706225     A.U. after   10 cycles
 SCF Done:  E(RB3LYP) =  -731.190770777     A.U. after   10 cycles
 SCF Done:  E(RB3LYP) =  -731.190754986     A.U. after   10 cycles
 SCF Done:  E(RB3LYP) =  -731.190644775     A.U. after   10 cycles
 SCF Done:  E(RB3LYP) =  -731.190788382     A.U. after   10 cycles
 SCF Done:  E(RB3LYP) =  -731.190805903     A.U. after   10 cycles
 SCF Done:  E(RB3LYP) =  -731.190806101     A.U. after    7 cycles
 SCF Done:  E(RB3LYP) =  -731.190762191     A.U. after   10 cycles
 SCF Done:  E(RB3LYP) =  -731.190762915     A.U. after    8 cycles
 SCF Done:  E(RB3LYP) =  -731.190758720     A.U. after    8 cycles
 SCF Done:  E(RB3LYP) =  -731.190760384     A.U. after    7 cycles
 Optimization completed.
    -- Stationary point found.
 Normal termination of Gaussian 16 at Mon Jul 12 13:18:08 2021.

 --------------------------------------------------------------------
 #P Geom=AllCheck Guess=TCheck SCRF=Check GenChk RB3LYP/6-31G(d) Freq
 --------------------------------------------------------------------

 Structure from the checkpoint file:  "SET_328_BBB212_conf1.geo_060_225.chk"
 -----------------------------------------
 SET_328_BBB212_conf1.geo_060_225 geometry
 -----------------------------------------
 Charge = -1 Multiplicity = 1

 SCF Done:  E(RB3LYP) =  -731.190760384     A.U. after    1 cycles

  Exact polarizability: 270.110 -15.508 181.140  30.730  -0.598 164.346
 Approx polarizability: 319.282 -23.480 236.025  42.828  -3.375 220.498

                      1                      2                      3
                      A                      A                      A
 Frequencies --     15.2048                40.8860                51.0057
 Red. masses --      3.6658                 5.9789                 4.2728
 Frc consts  --      0.0005                 0.0059                 0.0065
 IR Inten    --      0.4731                 5.5972                 1.5882

                      4                      5                      6
                      A                      A                      A
 Frequencies --     98.2029               150.4857               174.5296
 Red. masses --      4.7973                 5.5040                 3.8755
 Frc consts  --      0.0273                 0.0734                 0.0696
 IR Inten    --      0.9345                 2.0971                 1.4234

                      7                      8                      9
                      A                      A                      A
 Frequencies --    209.1250               266.7295               278.6175
 Red. masses --      2.4155                 2.6931                 2.1294
 Frc consts  --      0.0622                 0.1129                 0.0974
 IR Inten    --      0.0136                 0.3938                 1.0104

                     10                     11                     12
                      A                      A                      A
 Frequencies --    281.6886               304.6955               332.5623
 Red. masses --      2.9768                 1.4962                 1.7571
 Frc consts  --      0.1392                 0.0818                 0.1145
 IR Inten    --      3.8110                 0.6473                 0.5783

                     13                     14                     15
                      A                      A                      A
 Frequencies --    345.7849               371.5073               373.4691
 Red. masses --      2.7645                 1.0836                 3.5935
 Frc consts  --      0.1948                 0.0881                 0.2953
 IR Inten    --      2.2188               159.5302                 2.5570

                     16                     17                     18
                      A                      A                      A
 Frequencies --    415.2988               423.8174               433.5788
 Red. masses --      4.0204                 3.1760                 3.3603
 Frc consts  --      0.4085                 0.3361                 0.3722
 IR Inten    --     15.8236                 0.6402                 1.2618

                     19                     20                     21
                      A                      A                      A
 Frequencies --    446.6347               480.7156               490.7374
 Red. masses --      4.8051                 3.7364                 3.4020
 Frc consts  --      0.5648                 0.5087                 0.4827
 IR Inten    --      2.2780                 1.9339                 2.2742

                     22                     23                     24
                      A                      A                      A
 Frequencies --    541.0054               561.6072               575.3492
 Red. masses --      4.0074                 2.3335                 2.3883
 Frc consts  --      0.6911                 0.4336                 0.4658
 IR Inten    --     13.6355                32.2394                21.6589

                     25                     26                     27
                      A                      A                      A
 Frequencies --    649.1965               650.9454               657.0735
 Red. masses --      6.0157                 6.2561                 6.9160
 Frc consts  --      1.4938                 1.5619                 1.7593
 IR Inten    --      4.9081                 2.9416                 1.5384

                     28                     29                     30
                      A                      A                      A
 Frequencies --    736.9553               750.9078               766.0015
 Red. masses --      4.2213                 3.8678                 2.7068
 Frc consts  --      1.3508                 1.2849                 0.9358
 IR Inten    --      9.3277                 3.1538                16.4962

                     31                     32                     33
                      A                      A                      A
 Frequencies --    816.5129               820.5693               842.6610
 Red. masses --      1.2479                 1.3217                 2.3568
 Frc consts  --      0.4902                 0.5243                 0.9860
 IR Inten    --      0.5945                13.1610                45.6435

                     34                     35                     36
                      A                      A                      A
 Frequencies --    845.2254               846.6527               852.5115
 Red. masses --      2.2247                 3.1234                 4.0634
 Frc consts  --      0.9364                 1.3191                 1.7400
 IR Inten    --     38.5554                17.3117                14.7235

                     37                     38                     39
                      A                      A                      A
 Frequencies --    922.4585               939.0504               940.8690
 Red. masses --      1.8812                 1.3406                 1.3647
 Frc consts  --      0.9431                 0.6965                 0.7118
 IR Inten    --      5.2566                 0.6412                 0.2404

                     40                     41                     42
                      A                      A                      A
 Frequencies --    942.5984               951.7199               966.9654
 Red. masses --      1.3723                 1.4664                 1.3112
 Frc consts  --      0.7184                 0.7825                 0.7223
 IR Inten    --      0.6193                 2.0560                 1.3280

                     43                     44                     45
                      A                      A                      A
 Frequencies --   1003.7177              1026.6513              1033.7513
 Red. masses --      2.8882                 1.4915                 2.2487
 Frc consts  --      1.7143                 0.9262                 1.4159
 IR Inten    --      5.8739                 2.4788                 5.7856

                     46                     47                     48
                      A                      A                      A
 Frequencies --   1101.8126              1122.4959              1127.3607
 Red. masses --      1.8900                 1.7889                 1.4375
 Frc consts  --      1.3518                 1.3280                 1.0764
 IR Inten    --     25.3285                 9.5534                 5.4927

                     49                     50                     51
                      A                      A                      A
 Frequencies --   1131.3288              1164.2298              1205.2209
 Red. masses --      2.0037                 2.0382                 1.4901
 Frc consts  --      1.5110                 1.6277                 1.2753
 IR Inten    --      0.6697                12.3631               345.3169

                     52                     53                     54
                      A                      A                      A
 Frequencies --   1206.1263              1210.7925              1255.1422
 Red. masses --      1.2167                 1.1640                 3.4275
 Frc consts  --      1.0428                 1.0054                 3.1814
 IR Inten    --     60.5889                 5.3782                16.6094

                     55                     56                     57
                      A                      A                      A
 Frequencies --   1265.1292              1275.6100              1303.8960
 Red. masses --      3.4411                 2.7851                 3.2698
 Frc consts  --      3.2450                 2.6701                 3.2753
 IR Inten    --     36.4617                13.0022               104.4057

                     58                     59                     60
                      A                      A                      A
 Frequencies --   1342.5786              1345.8276              1380.0996
 Red. masses --      1.7427                 1.8885                 2.5830
 Frc consts  --      1.8508                 2.0153                 2.8987
 IR Inten    --     38.6252                19.1921                85.3708

                     61                     62                     63
                      A                      A                      A
 Frequencies --   1408.0788              1420.7732              1422.9677
 Red. masses --      1.2601                 1.8718                 1.6745
 Frc consts  --      1.4721                 2.2262                 1.9976
 IR Inten    --     11.7898               111.2837               114.0858

                     64                     65                     66
                      A                      A                      A
 Frequencies --   1468.7407              1476.7393              1505.6337
 Red. masses --      3.4735                 2.7511                 1.0605
 Frc consts  --      4.4148                 3.5347                 1.4165
 IR Inten    --     16.0218                35.7148                 5.7928

                     67                     68                     69
                      A                      A                      A
 Frequencies --   1517.7252              1523.8503              1531.8736
 Red. masses --      1.0685                 1.0649                 1.0691
 Frc consts  --      1.4501                 1.4569                 1.4782
 IR Inten    --      2.9481                 8.8955                14.6613

                     70                     71                     72
                      A                      A                      A
 Frequencies --   1556.2215              1561.9361              1574.1591
 Red. masses --      4.8738                 2.4594                 3.7516
 Frc consts  --      6.9544                 3.5351                 5.4773
 IR Inten    --    177.3451               158.7374               387.3192

                     73                     74                     75
                      A                      A                      A
 Frequencies --   1647.7259              1657.3840              1673.9173
 Red. masses --      6.0537                 5.7784                 5.9544
 Frc consts  --      9.6837                 9.3519                 9.8300
 IR Inten    --     32.2476               393.7399                44.7043

                     76                     77                     78
                      A                      A                      A
 Frequencies --   3054.8930              3061.9446              3120.6702
 Red. masses --      1.0371                 1.0364                 1.0997
 Frc consts  --      5.7022                 5.7249                 6.3099
 IR Inten    --     45.7428                49.6377                35.0839

                     79                     80                     81
                      A                      A                      A
 Frequencies --   3126.7035              3140.5018              3142.0148
 Red. masses --      1.1016                 1.1021                 1.1002
 Frc consts  --      6.3453                 6.4042                 6.3995
 IR Inten    --     95.9845                39.6662                47.1942

                     82                     83                     84
                      A                      A                      A
 Frequencies --   3146.8677              3164.5935              3172.3774
 Red. masses --      1.0862                 1.0857                 1.0922
 Frc consts  --      6.3372                 6.4059                 6.4761
 IR Inten    --     67.5499                51.2715               102.8365

                     85                     86                     87
                      A                      A                      A
 Frequencies --   3187.7140              3190.0641              3198.1881
 Red. masses --      1.0889                 1.0911                 1.0876
 Frc consts  --      6.5191                 6.5421                 6.5545
 IR Inten    --     40.4963                55.4418                 7.7405

                     88                     89                     90
                      A                      A                      A
 Frequencies --   3217.8870              3227.5326              3749.4289
 Red. masses --      1.0935                 1.0903                 1.0659
 Frc consts  --      6.6716                 6.6919                 8.8289
 IR Inten    --     27.1024                18.5333               107.4766

 - Thermochemistry -
 -------------------
 Temperature   298.150 Kelvin.  Pressure   1.00000 Atm.
 Atom     1 has atomic number  6 and mass  12.00000

 Molecular mass:   227.10720 amu.
 Principal axes and moments of inertia in atomic units:
                           1         2         3
     Eigenvalues --  2049.280006955.152557845.66347
           X            0.99997   0.00467   0.00661
           Y           -0.00468   0.99999   0.00092
           Z           -0.00661  -0.00095   0.99998
 This molecule is an asymmetric top.
 Rotational symmetry number  1.
 Warning -- assumption of classical behavior for rotation
           may cause significant error
 Rotational temperatures (Kelvin)      0.04227     0.01245     0.01104
 Rotational constants (GHZ):           0.88067     0.25948     0.23003
 Zero-point vibrational energy     687332.3 (Joules/Mol)
                                  164.27637 (Kcal/Mol)
 Warning -- explicit consideration of  24 degrees of freedom as
           vibrations may cause significant error
 Vibrational temperatures:     21.88    58.83    73.39   141.29   216.52
          (Kelvin)            251.11   300.88   383.76   400.87   405.29
                              438.39   478.48   497.51   534.52   537.34
                              597.52   609.78   623.82   642.61   691.64
                              706.06   778.39   808.03   827.80   934.05
                              936.57   945.38  1060.31  1080.39  1102.11
                             1174.78  1180.62  1212.40  1216.09  1218.14
                             1226.57  1327.21  1351.08  1353.70  1356.19
                             1369.31  1391.25  1444.13  1477.12  1487.34
                             1585.26  1615.02  1622.02  1627.73  1675.07
                             1734.04  1735.35  1742.06  1805.87  1820.24
                             1835.32  1876.02  1931.67  1936.35  1985.66
                             2025.91  2044.18  2047.33  2113.19  2124.70
                             2166.27  2183.67  2192.48  2204.02  2239.06
                             2247.28  2264.86  2370.71  2384.61  2408.39
                             4395.31  4405.46  4489.95  4498.63  4518.48
                             4520.66  4527.64  4553.14  4564.34  4586.41
                             4589.79  4601.48  4629.82  4643.70  5394.59

 Zero-point correction=                           0.261791 (Hartree/Particle)
 Thermal correction to Energy=                    0.276861
 Thermal correction to Enthalpy=                  0.277805
 Thermal correction to Gibbs Free Energy=         0.218553
 Sum of electronic and zero-point Energies=           -730.928969
 Sum of electronic and thermal Energies=              -730.913900
 Sum of electronic and thermal Enthalpies=            -730.912955
 Sum of electronic and thermal Free Energies=         -730.972207

                     E (Thermal)             CV                S
                      KCal/Mol        Cal/Mol-Kelvin    Cal/Mol-Kelvin
 Total                  173.733             60.261            124.705
 Electronic               0.000              0.000              0.000
 Translational            0.889              2.981             42.163
 Rotational               0.889              2.981             33.080
 Vibrational            171.955             54.300             49.462
 Vibration     1          0.593              1.986              7.179
 Vibration     2          0.594              1.981              5.216
 Vibration     3          0.595              1.977              4.778
 Vibration     4          0.604              1.950              3.490
 Vibration     5          0.618              1.902              2.666
 Vibration     6          0.627              1.874              2.386
 Vibration     7          0.642              1.827              2.051
 Vibration     8          0.672              1.734              1.617
 Vibration     9          0.679              1.713              1.542
 Vibration    10          0.681              1.708              1.523
 Vibration    11          0.696              1.665              1.391
 Vibration    12          0.715              1.610              1.248
 Vibration    13          0.724              1.584              1.185
 Vibration    14          0.743              1.531              1.074
 Vibration    15          0.745              1.527              1.066
 Vibration    16          0.779              1.437              0.908
 Vibration    17          0.786              1.418              0.879
 Vibration    18          0.794              1.397              0.847
 Vibration    19          0.806              1.368              0.806
 Vibration    20          0.837              1.293              0.708
 Vibration    21          0.847              1.271              0.682
 Vibration    22          0.896              1.159              0.563
 Vibration    23          0.917              1.114              0.521
 Vibration    24          0.932              1.085              0.494

                           ! Non-Optimized Parameters !
 Normal termination of Gaussian 16 at Mon Jul 12 13:47:52 2021.

 ----------------------------------------------------------------------
 #p b3lyp/6-31G(d) scrf=(iefpcm,read,solvent=n-octanol) geom=allcheck g
 uess=read
 ----------------------------------------------------------------------

 Structure from the checkpoint file:  "SET_328_BBB212_conf1.geo_060_225.chk"
 -----------------------------------------
 SET_328_BBB212_conf1.geo_060_225 geometry
 -----------------------------------------
 Charge = -1 Multiplicity = 1

 SCF Done:  E(RB3LYP) =  -731.190760384     A.U. after    1 cycles
 Normal termination of Gaussian 16 at Mon Jul 12 13:48:32 2021.

 -----------------------------
 #p B3LYP/6-31G* geom=allcheck
 -----------------------------

 Structure from the checkpoint file:  "SET_328_BBB212_conf1.geo_060_225.chk"
 -----------------------------------------
 SET_328_BBB212_conf1.geo_060_225 geometry
 -----------------------------------------
 Charge = -1 Multiplicity = 1

 SCF Done:  E(RB3LYP) =  -731.090917936     A.U. after   19 cycles
 Normal termination of Gaussian 16 at Mon Jul 12 13:50:54 2021.
 Gaussian 16:  ES64L-G16RevA.03 25-Dec-2016

 --------------------------------------------------------
 #p mp2/aug-cc-pVDZ scf=tight maxdisk=180GB geom=allcheck
 --------------------------------------------------------

 Structure from the checkpoint file:  "SET_328_BBB212_conf1.geo_060_225.chk"
 -----------------------------------------
 SET_328_BBB212_conf1.geo_060_225 geometry
 -----------------------------------------
 Charge = -1 Multiplicity = 1

                         Standard orientation:
 ---------------------------------------------------------------------
 Center     Atomic      Atomic             Coordinates (Angstroms)
 Number     Number       Type             X           Y           Z
 ---------------------------------------------------------------------
      1          6           0       -0.019655    2.310532    1.287548
      2          1           0       -0.018322    1.712007    2.202278
      3          1           0       -0.935001    2.909622    1.276594
      4          1           0        0.834225    2.995170    1.331665
      5          6           0        0.044936    1.423366    0.022716
      6          6           0        0.089265    2.372753   -1.193477
      7          1           0        0.074853    1.822065   -2.138785
      8          1           0        1.012928    2.955443   -1.163587
      9          1           0       -0.748291    3.078677   -1.196623
     10          6           0       -1.223591    0.551223    0.004805
     11          6           0       -1.328506   -0.544281    0.876283
     12          6           0       -2.473080   -1.328739    0.940520
     13          6           0       -3.562702   -1.039835    0.110467
     14          8           0       -4.665246   -1.846712    0.207043
     15          1           0       -5.338002   -1.541128   -0.422261
     16          6           0       -3.481778    0.036832   -0.772035
     17          6           0       -2.323796    0.818678   -0.814691
     18          1           0       -2.289033    1.649742   -1.509439
     19          1           0       -4.317199    0.267457   -1.427882
     20          1           0       -2.536673   -2.173213    1.618538
     21          1           0       -0.478222   -0.791117    1.504778
     22          6           0        1.300249    0.540328    0.007550
     23          6           0        2.308818    0.607118    0.980455
     24          1           0        2.196446    1.291236    1.817423
     25          6           0        3.459523   -0.173762    0.916701
     26          1           0        4.214455   -0.087995    1.694574
     27          6           0        3.707124   -1.105469   -0.146806
     28          8           0        4.766929   -1.827284   -0.221612
     29          6           0        2.653260   -1.158921   -1.126106
     30          1           0        2.776327   -1.852768   -1.955633
     31          6           0        1.514037   -0.372183   -1.043579
     32          1           0        0.753423   -0.469065   -1.817198
 ---------------------------------------------------------------------

 SCF Done:  E(RHF) =  -726.570843468     A.U. after   20 cycles
 E2 =    -0.2501190814D+01 EUMP2 =    -0.72907203428185D+03

 The electronic state is 1-A.
 Alpha  occ. eigenvalues --  -20.52151 -20.30328 -11.21789 -11.15162 -11.14971
 Alpha  occ. eigenvalues --  -11.14438 -11.14316 -11.14176 -11.13902 -11.12006
 Alpha  occ. eigenvalues --  -11.11937 -11.11728 -11.09002 -11.08899 -11.07078
 Alpha  occ. eigenvalues --  -11.05698 -11.05282  -1.32645  -1.11778  -1.06280
 Alpha  occ. eigenvalues --   -1.00363  -0.95055  -0.92778  -0.89434  -0.85211
 Alpha  occ. eigenvalues --   -0.82763  -0.81207  -0.75510  -0.74400  -0.67912
 Alpha  occ. eigenvalues --   -0.65948  -0.64511  -0.61897  -0.58166  -0.54953
 Alpha  occ. eigenvalues --   -0.52518  -0.52431  -0.50760  -0.49561  -0.49299
 Alpha  occ. eigenvalues --   -0.47742  -0.46641  -0.46085  -0.45166  -0.43553
 Alpha  occ. eigenvalues --   -0.43034  -0.41595  -0.40093  -0.39290  -0.37454
 Alpha  occ. eigenvalues --   -0.37258  -0.36804  -0.35027  -0.33178  -0.32393
 Alpha  occ. eigenvalues --   -0.27195  -0.24836  -0.21404  -0.20158  -0.18175
 Alpha  occ. eigenvalues --   -0.09462
 Alpha virt. eigenvalues --    0.08871   0.10585   0.11254   0.11927   0.12313
 Alpha virt. eigenvalues --    0.12953   0.13622   0.14081   0.14753   0.14960
 Alpha virt. eigenvalues --    0.15513   0.16416   0.16853   0.17081   0.17596

 Mulliken charges:
               1
     1  C    0.894944
     2  H   -0.012764
     3  H   -0.222268
     4  H   -0.035779
     5  C   -0.494304
     6  C    1.026645
     7  H   -0.037549
     8  H   -0.225373
     9  H   -0.065373
    10  C    0.992459
    11  C    0.380329
    12  C    0.296377
    13  C    0.667956
    14  O   -0.940739
    15  H    0.172072
    16  C   -0.005042
    17  C    0.662178
    18  H   -0.842595
    19  H   -0.606547
    20  H   -0.498214
    21  H   -0.746682
    22  C    1.013099
    23  C    0.652270
    24  H   -0.909413
    25  C    0.129612
    26  H   -0.547295
    27  C    0.420724
    28  O   -1.148407
    29  C    0.186259
    30  H   -0.550169
    31  C    0.220289
    32  H   -0.826698
 Sum of Mulliken charges =  -1.00000

 Dipole moment (field-independent basis, Debye):
    X=            -15.7067    Y=              6.0666    Z=             -0.2186  Tot=             16.8390
 Quadrupole moment (field-independent basis, Debye-Ang):
   XX=           -184.0212   YY=           -123.1777   ZZ=           -106.9937
   XY=             23.3482   XZ=             11.5387   YZ=             -1.0647

 Normal termination of Gaussian 16 at Mon Jul 12 14:39:28 2021.
