 Gaussian 16, Revision A.03,

 ---------------------------------------------------------------
 #p b3lyp/6-31G(d) opt freq scrf=(iefpcm,read,solvent=n-octanol)
 ---------------------------------------------------------------

 -----------------------------------------
 SET_328_BBB212_conf1.geo_135_300 geometry
 -----------------------------------------
 Symbolic Z-matrix:
 Charge = -1 Multiplicity = 1

 SCF Done:  E(RB3LYP) =  -731.140454898     A.U. after   13 cycles
 SCF Done:  E(RB3LYP) =  -731.173802807     A.U. after   12 cycles
 SCF Done:  E(RB3LYP) =  -731.188094628     A.U. after   12 cycles
 SCF Done:  E(RB3LYP) =  -731.189195373     A.U. after   11 cycles
 SCF Done:  E(RB3LYP) =  -731.189594971     A.U. after   11 cycles
 SCF Done:  E(RB3LYP) =  -731.190188134     A.U. after   10 cycles
 SCF Done:  E(RB3LYP) =  -731.190175615     A.U. after   10 cycles
 SCF Done:  E(RB3LYP) =  -731.190437468     A.U. after   10 cycles
 SCF Done:  E(RB3LYP) =  -731.190392072     A.U. after   10 cycles
 SCF Done:  E(RB3LYP) =  -731.190314659     A.U. after    8 cycles
 SCF Done:  E(RB3LYP) =  -731.190427534     A.U. after    3 cycles
 SCF Done:  E(RB3LYP) =  -731.190427524     A.U. after    4 cycles
 SCF Done:  E(RB3LYP) =  -731.190427519     A.U. after    2 cycles
 SCF Done:  E(RB3LYP) =  -731.190337276     A.U. after    9 cycles
 SCF Done:  E(RB3LYP) =  -731.190428409     A.U. after    9 cycles
 SCF Done:  E(RB3LYP) =  -731.190335804     A.U. after    9 cycles
 Optimization completed.
    -- Stationary point found.
 Normal termination of Gaussian 16 at Mon Jul 12 13:40:34 2021.

 --------------------------------------------------------------------
 #P Geom=AllCheck Guess=TCheck SCRF=Check GenChk RB3LYP/6-31G(d) Freq
 --------------------------------------------------------------------

 Structure from the checkpoint file:  "SET_328_BBB212_conf1.geo_135_300.chk"
 -----------------------------------------
 SET_328_BBB212_conf1.geo_135_300 geometry
 -----------------------------------------
 Charge = -1 Multiplicity = 1

 SCF Done:  E(RB3LYP) =  -731.190335804     A.U. after    1 cycles

  Exact polarizability: 265.001  19.885 185.925 -25.797  -4.712 163.447
 Approx polarizability: 316.556  31.345 240.036 -38.779  -7.455 218.753

 ******    1 imaginary frequencies (negative Signs) ******

                      1                      2                      3
                      A                      A                      A
 Frequencies --    -20.2720                43.4678                53.3427
 Red. masses --      3.7153                 7.4774                 3.8559
 Frc consts  --      0.0009                 0.0083                 0.0065
 IR Inten    --      4.7177                 8.5087                 0.5785

                      4                      5                      6
                      A                      A                      A
 Frequencies --     96.6380               151.8917               193.0997
 Red. masses --      4.6010                 5.8576                 4.4491
 Frc consts  --      0.0253                 0.0796                 0.0977
 IR Inten    --      1.0327                 1.9964                 0.2549

                      7                      8                      9
                      A                      A                      A
 Frequencies --    229.6145               255.6501               282.7539
 Red. masses --      3.1383                 3.0045                 3.7166
 Frc consts  --      0.0975                 0.1157                 0.1751
 IR Inten    --      1.5912                 1.4232                 6.1394

                     10                     11                     12
                      A                      A                      A
 Frequencies --    292.9735               303.1393               309.7069
 Red. masses --      1.4890                 1.2016                 1.2141
 Frc consts  --      0.0753                 0.0651                 0.0686
 IR Inten    --     25.4562               127.5575                 0.1580

                     13                     14                     15
                      A                      A                      A
 Frequencies --    330.9071               343.0393               375.1144
 Red. masses --      1.8846                 2.8564                 3.6506
 Frc consts  --      0.1216                 0.1980                 0.3026
 IR Inten    --      2.1843                 1.3581                 1.0720

                     16                     17                     18
                      A                      A                      A
 Frequencies --    412.4170               421.6321               435.5218
 Red. masses --      3.8528                 3.1330                 3.4291
 Frc consts  --      0.3861                 0.3282                 0.3832
 IR Inten    --      9.8765                 0.4723                 0.1914

                     19                     20                     21
                      A                      A                      A
 Frequencies --    444.3714               479.0017               491.2571
 Red. masses --      4.7814                 3.8192                 3.6184
 Frc consts  --      0.5563                 0.5163                 0.5145
 IR Inten    --      6.4786                 2.9695                 2.3425

                     22                     23                     24
                      A                      A                      A
 Frequencies --    536.8058               558.7458               569.1997
 Red. masses --      3.9925                 2.3544                 2.3301
 Frc consts  --      0.6779                 0.4331                 0.4448
 IR Inten    --     13.1083                35.0298                23.0479

                     25                     26                     27
                      A                      A                      A
 Frequencies --    647.0987               650.8704               657.2159
 Red. masses --      5.7678                 6.6015                 6.7002
 Frc consts  --      1.4230                 1.6477                 1.7051
 IR Inten    --      3.4522                 1.2619                 0.1001

                     28                     29                     30
                      A                      A                      A
 Frequencies --    737.2322               748.3390               767.2141
 Red. masses --      4.1818                 3.8269                 2.8222
 Frc consts  --      1.3391                 1.2627                 0.9787
 IR Inten    --      7.9526                 3.1715                17.3881

                     31                     32                     33
                      A                      A                      A
 Frequencies --    816.5411               818.5764               839.5904
 Red. masses --      1.3037                 1.2505                 1.6443
 Frc consts  --      0.5121                 0.4937                 0.6829
 IR Inten    --      9.0375                 1.5993                36.8261

                     34                     35                     36
                      A                      A                      A
 Frequencies --    844.9676               846.6208               852.7041
 Red. masses --      2.7014                 3.9743                 5.2120
 Frc consts  --      1.1364                 1.6784                 2.2328
 IR Inten    --     36.1952                41.1686                 8.4454

                     37                     38                     39
                      A                      A                      A
 Frequencies --    931.9416               943.6199               945.4173
 Red. masses --      1.8746                 1.3255                 1.3713
 Frc consts  --      0.9592                 0.6954                 0.7222
 IR Inten    --      2.3855                 0.2516                 0.3979

                     40                     41                     42
                      A                      A                      A
 Frequencies --    953.6079               956.3581               961.6423
 Red. masses --      1.4972                 1.3666                 1.3476
 Frc consts  --      0.8022                 0.7364                 0.7342
 IR Inten    --      0.9564                 0.6513                 5.3775

                     43                     44                     45
                      A                      A                      A
 Frequencies --   1001.4397              1031.5512              1040.4204
 Red. masses --      2.8376                 2.5409                 1.3716
 Frc consts  --      1.6767                 1.5930                 0.8748
 IR Inten    --      8.4788                 5.0293                 4.8208

                     46                     47                     48
                      A                      A                      A
 Frequencies --   1105.7345              1119.1892              1137.1696
 Red. masses --      1.7742                 1.6466                 1.5263
 Frc consts  --      1.2781                 1.2152                 1.1629
 IR Inten    --     13.2205                 8.7095                25.4355

                     49                     50                     51
                      A                      A                      A
 Frequencies --   1141.3883              1181.1012              1197.5705
 Red. masses --      2.1436                 2.1194                 1.2517
 Frc consts  --      1.6454                 1.7420                 1.0577
 IR Inten    --      6.0015                 8.4335               274.8196

                     52                     53                     54
                      A                      A                      A
 Frequencies --   1202.6263              1208.5117              1258.8469
 Red. masses --      1.2834                 1.1944                 3.2002
 Frc consts  --      1.0937                 1.0278                 2.9880
 IR Inten    --    120.0724                10.9464                 9.5924

                     55                     56                     57
                      A                      A                      A
 Frequencies --   1267.0653              1276.3934              1300.4479
 Red. masses --      3.5424                 2.8159                 3.3522
 Frc consts  --      3.3507                 2.7030                 3.3401
 IR Inten    --     32.6231                45.1323               130.1290

                     58                     59                     60
                      A                      A                      A
 Frequencies --   1342.3103              1345.0597              1382.6586
 Red. masses --      1.7910                 2.0877                 2.1603
 Frc consts  --      1.9013                 2.2253                 2.4333
 IR Inten    --     39.6775                20.2610                23.3570

                     61                     62                     63
                      A                      A                      A
 Frequencies --   1417.1344              1419.7295              1434.5720
 Red. masses --      3.1125                 1.2456                 1.2404
 Frc consts  --      3.6828                 1.4792                 1.5040
 IR Inten    --    222.5457                11.7416                10.8309

                     64                     65                     66
                      A                      A                      A
 Frequencies --   1468.5012              1474.0111              1513.5249
 Red. masses --      3.4553                 2.8686                 1.0589
 Frc consts  --      4.3902                 3.6722                 1.4292
 IR Inten    --     15.6273                34.1779                 4.1370

                     67                     68                     69
                      A                      A                      A
 Frequencies --   1514.5995              1527.6428              1530.9359
 Red. masses --      1.0616                 1.0678                 1.0903
 Frc consts  --      1.4349                 1.4683                 1.5056
 IR Inten    --      5.4662                 3.6843                22.4615

                     70                     71                     72
                      A                      A                      A
 Frequencies --   1557.5827              1559.7523              1573.7027
 Red. masses --      4.3420                 2.5077                 3.8002
 Frc consts  --      6.2065                 3.5944                 5.5451
 IR Inten    --    161.1853               183.0236               410.2944

                     73                     74                     75
                      A                      A                      A
 Frequencies --   1647.1451              1657.1201              1674.6468
 Red. masses --      5.7489                 5.6957                 6.0189
 Frc consts  --      9.1896                 9.2151                 9.9451
 IR Inten    --     39.5357               357.2434                46.1245

                     76                     77                     78
                      A                      A                      A
 Frequencies --   3050.1988              3056.9068              3117.8901
 Red. masses --      1.0383                 1.0380                 1.0972
 Frc consts  --      5.6914                 5.7150                 6.2843
 IR Inten    --     46.7395                54.3297                20.5836

                     79                     80                     81
                      A                      A                      A
 Frequencies --   3123.3797              3139.5089              3140.7295
 Red. masses --      1.0995                 1.1021                 1.1019
 Frc consts  --      6.3198                 6.4001                 6.4039
 IR Inten    --    115.9023                44.4290                44.1462

                     82                     83                     84
                      A                      A                      A
 Frequencies --   3154.3643              3155.4133              3180.0460
 Red. masses --      1.0855                 1.0862                 1.0918
 Frc consts  --      6.3635                 6.3718                 6.5055
 IR Inten    --    109.7113                 0.8034               139.7823

                     85                     86                     87
                      A                      A                      A
 Frequencies --   3186.1078              3190.2533              3216.2845
 Red. masses --      1.0908                 1.0893                 1.0876
 Frc consts  --      6.5242                 6.5323                 6.6285
 IR Inten    --     16.9828                33.0564                15.8522

                     88                     89                     90
                      A                      A                      A
 Frequencies --   3221.4569              3234.2374              3743.5107
 Red. masses --      1.0915                 1.0923                 1.0662
 Frc consts  --      6.6737                 6.7316                 8.8033
 IR Inten    --     12.4376                28.7308               101.7077

 - Thermochemistry -
 -------------------
 Temperature   298.150 Kelvin.  Pressure   1.00000 Atm.
 Atom     1 has atomic number  6 and mass  12.00000

 Molecular mass:   227.10720 amu.
 Principal axes and moments of inertia in atomic units:
                           1         2         3
     Eigenvalues --  2057.427146918.560627827.25040
           X            0.99998  -0.00612  -0.00311
           Y            0.00609   0.99994  -0.00902
           Z            0.00317   0.00900   0.99995
 This molecule is an asymmetric top.
 Rotational symmetry number  1.
 Warning -- assumption of classical behavior for rotation
           may cause significant error
 Rotational temperatures (Kelvin)      0.04210     0.01252     0.01107
 Rotational constants (GHZ):           0.87718     0.26086     0.23057
    1 imaginary frequencies ignored.
 Zero-point vibrational energy     687555.0 (Joules/Mol)
                                  164.32959 (Kcal/Mol)
 Warning -- explicit consideration of  23 degrees of freedom as
           vibrations may cause significant error
 Vibrational temperatures:     62.54    76.75   139.04   218.54   277.83
          (Kelvin)            330.36   367.82   406.82   421.52   436.15
                              445.60   476.10   493.56   539.71   593.38
                              606.63   626.62   639.35   689.18   706.81
                              772.34   803.91   818.95   931.03   936.46
                              945.59  1060.71  1076.69  1103.85  1174.82
                             1177.75  1207.98  1215.72  1218.10  1226.85
                             1340.86  1357.66  1360.24  1372.03  1375.99
                             1383.59  1440.85  1484.17  1496.93  1590.91
                             1610.26  1636.13  1642.20  1699.34  1723.04
                             1730.31  1738.78  1811.20  1823.02  1836.45
                             1871.05  1931.29  1935.24  1989.34  2038.94
                             2042.67  2064.03  2112.85  2120.77  2177.62
                             2179.17  2197.94  2202.68  2241.01  2244.14
                             2264.21  2369.87  2384.23  2409.44  4388.56
                             4398.21  4485.95  4493.85  4517.05  4518.81
                             4538.43  4539.94  4575.38  4584.10  4590.06
                             4627.52  4634.96  4653.35  5386.08

 Zero-point correction=                           0.261876 (Hartree/Particle)
 Thermal correction to Energy=                    0.276043
 Thermal correction to Enthalpy=                  0.276987
 Thermal correction to Gibbs Free Energy=         0.221256
 Sum of electronic and zero-point Energies=           -730.928460
 Sum of electronic and thermal Energies=              -730.914293
 Sum of electronic and thermal Enthalpies=            -730.913349
 Sum of electronic and thermal Free Energies=         -730.969080

                     E (Thermal)             CV                S
                      KCal/Mol        Cal/Mol-Kelvin    Cal/Mol-Kelvin
 Total                  173.219             58.324            117.295
 Electronic               0.000              0.000              0.000
 Translational            0.889              2.981             42.163
 Rotational               0.889              2.981             33.077
 Vibrational            171.442             52.362             42.055
 Vibration     1          0.595              1.980              5.094
 Vibration     2          0.596              1.976              4.689
 Vibration     3          0.603              1.952              3.521
 Vibration     4          0.619              1.901              2.648
 Vibration     5          0.635              1.849              2.198
 Vibration     6          0.652              1.796              1.882
 Vibration     7          0.666              1.753              1.691
 Vibration     8          0.682              1.706              1.517
 Vibration     9          0.688              1.687              1.457
 Vibration    10          0.695              1.668              1.400
 Vibration    11          0.699              1.655              1.364
 Vibration    12          0.713              1.614              1.256
 Vibration    13          0.722              1.589              1.198
 Vibration    14          0.746              1.523              1.059
 Vibration    15          0.776              1.443              0.918
 Vibration    16          0.784              1.423              0.886
 Vibration    17          0.796              1.393              0.841
 Vibration    18          0.804              1.373              0.813
 Vibration    19          0.835              1.297              0.713
 Vibration    20          0.847              1.269              0.680
 Vibration    21          0.892              1.169              0.572
 Vibration    22          0.914              1.121              0.526
 Vibration    23          0.925              1.098              0.506

                           ! Non-Optimized Parameters !
 Normal termination of Gaussian 16 at Mon Jul 12 14:13:28 2021.

 ----------------------------------------------------------------------
 #p b3lyp/6-31G(d) scrf=(iefpcm,read,solvent=n-octanol) geom=allcheck g
 uess=read
 ----------------------------------------------------------------------

 Structure from the checkpoint file:  "SET_328_BBB212_conf1.geo_135_300.chk"
 -----------------------------------------
 SET_328_BBB212_conf1.geo_135_300 geometry
 -----------------------------------------
 Charge = -1 Multiplicity = 1

 SCF Done:  E(RB3LYP) =  -731.190335804     A.U. after    1 cycles
 Normal termination of Gaussian 16 at Mon Jul 12 14:14:15 2021.

 -----------------------------
 #p B3LYP/6-31G* geom=allcheck
 -----------------------------

 Structure from the checkpoint file:  "SET_328_BBB212_conf1.geo_135_300.chk"
 -----------------------------------------
 SET_328_BBB212_conf1.geo_135_300 geometry
 -----------------------------------------
 Charge = -1 Multiplicity = 1

 SCF Done:  E(RB3LYP) =  -731.091453000     A.U. after   19 cycles
 Normal termination of Gaussian 16 at Mon Jul 12 14:16:59 2021.
 Gaussian 16:  ES64L-G16RevA.03 25-Dec-2016

 --------------------------------------------------------
 #p mp2/aug-cc-pVDZ scf=tight maxdisk=180GB geom=allcheck
 --------------------------------------------------------

 Structure from the checkpoint file:  "SET_328_BBB212_conf1.geo_135_300.chk"
 -----------------------------------------
 SET_328_BBB212_conf1.geo_135_300 geometry
 -----------------------------------------
 Charge = -1 Multiplicity = 1

                         Standard orientation:
 ---------------------------------------------------------------------
 Center     Atomic      Atomic             Coordinates (Angstroms)
 Number     Number       Type             X           Y           Z
 ---------------------------------------------------------------------
      1          6           0       -0.087066    2.413355   -1.138857
      2          1           0       -1.006313    3.002193   -1.083284
      3          1           0       -0.090285    1.875618   -2.091047
      4          1           0        0.758058    3.111685   -1.138903
      5          6           0       -0.037057    1.434582    0.054119
      6          6           0        0.040017    2.278213    1.344178
      7          1           0        0.952718    2.880951    1.342374
      8          1           0        0.055795    1.646557    2.235714
      9          1           0       -0.817693    2.955873    1.423683
     10          6           0        1.226349    0.555718    0.004848
     11          6           0        2.376590    0.900754   -0.715546
     12          6           0        3.524363    0.108669   -0.695246
     13          6           0        3.550573   -1.061289    0.065150
     14          8           0        4.700507   -1.805554    0.051503
     15          1           0        4.576819   -2.592284    0.606141
     16          6           0        2.416018   -1.426480    0.797215
     17          6           0        1.277438   -0.626350    0.755858
     18          1           0        0.391251   -0.927777    1.303056
     19          1           0        2.419744   -2.337563    1.388208
     20          1           0        4.402953    0.386159   -1.266572
     21          1           0        2.388754    1.803429   -1.314575
     22          6           0       -1.295958    0.560731    0.022685
     23          6           0       -1.572928   -0.231799   -1.108007
     24          1           0       -0.865624   -0.222726   -1.935167
     25          6           0       -2.710273   -1.019228   -1.204980
     26          1           0       -2.886929   -1.615914   -2.096600
     27          6           0       -3.696316   -1.089515   -0.158022
     28          8           0       -4.753711   -1.813406   -0.245057
     29          6           0       -3.387103   -0.276636    0.983747
     30          1           0       -4.091890   -0.286512    1.813470
     31          6           0       -2.238987    0.508166    1.060177
     32          1           0       -2.075679    1.098640    1.958026
 ---------------------------------------------------------------------

 SCF Done:  E(RHF) =  -726.571257185     A.U. after   18 cycles
 E2 =    -0.2501569926D+01 EUMP2 =    -0.72907282711156D+03

 The electronic state is 1-A.
 Alpha  occ. eigenvalues --  -20.52067 -20.30429 -11.21704 -11.14888 -11.14860
 Alpha  occ. eigenvalues --  -11.14486 -11.14344 -11.14105 -11.13795 -11.12048
 Alpha  occ. eigenvalues --  -11.11958 -11.11713 -11.09117 -11.08973 -11.07103
 Alpha  occ. eigenvalues --  -11.05817 -11.05414  -1.32557  -1.11890  -1.06223
 Alpha  occ. eigenvalues --   -1.00426  -0.95084  -0.92714  -0.89385  -0.85364
 Alpha  occ. eigenvalues --   -0.82732  -0.81293  -0.75871  -0.73631  -0.68316
 Alpha  occ. eigenvalues --   -0.66071  -0.64481  -0.61774  -0.57763  -0.55596
 Alpha  occ. eigenvalues --   -0.52854  -0.51626  -0.50707  -0.49511  -0.49085
 Alpha  occ. eigenvalues --   -0.48288  -0.46494  -0.46143  -0.45160  -0.43776
 Alpha  occ. eigenvalues --   -0.43057  -0.41699  -0.39955  -0.39214  -0.37452
 Alpha  occ. eigenvalues --   -0.37293  -0.36819  -0.35121  -0.33199  -0.32435
 Alpha  occ. eigenvalues --   -0.27258  -0.24836  -0.21309  -0.20271  -0.18282
 Alpha  occ. eigenvalues --   -0.09565
 Alpha virt. eigenvalues --    0.09452   0.10318   0.11334   0.12061   0.12380
 Alpha virt. eigenvalues --    0.12957   0.13618   0.13901   0.14644   0.15006
 Alpha virt. eigenvalues --    0.15647   0.16309   0.16823   0.17473   0.17555

 Mulliken charges:
               1
     1  C    1.097718
     2  H   -0.196297
     3  H   -0.067033
     4  H   -0.078589
     5  C   -1.118303
     6  C    0.927523
     7  H   -0.203033
     8  H   -0.002752
     9  H   -0.040332
    10  C    0.941278
    11  C    1.200590
    12  C    0.278994
    13  C    0.706285
    14  O   -0.949457
    15  H    0.172373
    16  C    0.111189
    17  C   -0.075596
    18  H   -0.667957
    19  H   -0.593858
    20  H   -0.531900
    21  H   -0.823042
    22  C    1.148884
    23  C    0.336494
    24  H   -0.835806
    25  C    0.184726
    26  H   -0.554377
    27  C    0.415793
    28  O   -1.146926
    29  C    0.138467
    30  H   -0.541404
    31  C    0.653351
    32  H   -0.886999
 Sum of Mulliken charges =  -1.00000

 Dipole moment (field-independent basis, Debye):
    X=             14.4587    Y=              4.4178    Z=              1.5577  Tot=             15.1986
 Quadrupole moment (field-independent basis, Debye-Ang):
   XX=           -196.4406   YY=           -114.7276   ZZ=           -107.1795
   XY=            -28.4360   XZ=             -2.0099   YZ=             -5.8253

 Normal termination of Gaussian 16 at Mon Jul 12 15:04:58 2021.
