 Gaussian 16, Revision A.03,

 ---------------------------------------------------------------
 #p b3lyp/6-31G(d) opt freq scrf=(iefpcm,read,solvent=n-octanol)
 ---------------------------------------------------------------

 -----------------------------------------
 SET_328_BBB299_conf1.geo_000_000 geometry
 -----------------------------------------
 Symbolic Z-matrix:
 Charge = -1 Multiplicity = 1

 SCF Done:  E(RB3LYP) =  -495.567355613     A.U. after   13 cycles
 SCF Done:  E(RB3LYP) =  -495.588462254     A.U. after   12 cycles
 SCF Done:  E(RB3LYP) =  -495.590009629     A.U. after   12 cycles
 SCF Done:  E(RB3LYP) =  -495.580062434     A.U. after   14 cycles
 SCF Done:  E(RB3LYP) =  -495.584688488     A.U. after   12 cycles
 SCF Done:  E(RB3LYP) =  -495.594964393     A.U. after   10 cycles
 SCF Done:  E(RB3LYP) =  -495.595415927     A.U. after   11 cycles
 SCF Done:  E(RB3LYP) =  -495.595792750     A.U. after   11 cycles
 SCF Done:  E(RB3LYP) =  -495.595685846     A.U. after   10 cycles
 SCF Done:  E(RB3LYP) =  -495.595826404     A.U. after   10 cycles
 SCF Done:  E(RB3LYP) =  -495.595832493     A.U. after    9 cycles
 Optimization completed.
    -- Stationary point found.
 Normal termination of Gaussian 16 at Mon Jul 12 12:55:16 2021.

 --------------------------------------------------------------------
 #P Geom=AllCheck Guess=TCheck SCRF=Check GenChk RB3LYP/6-31G(d) Freq
 --------------------------------------------------------------------

 Structure from the checkpoint file:  "SET_328_BBB299_conf1.geo_000_000.chk"
 -----------------------------------------
 SET_328_BBB299_conf1.geo_000_000 geometry
 -----------------------------------------
 Charge = -1 Multiplicity = 1

 SCF Done:  E(RB3LYP) =  -495.595832493     A.U. after    1 cycles

  Exact polarizability: 133.942  -1.265 122.865  -0.009  -0.004  34.987
 Approx polarizability: 166.628  -3.863 176.545  -0.019  -0.014  46.266

                      1                      2                      3
                      A                      A                      A
 Frequencies --     95.9652               148.6696               257.1331
 Red. masses --     10.4613                 5.7051                 5.7046
 Frc consts  --      0.0568                 0.0743                 0.2222
 IR Inten    --      0.9610                 1.7933                 1.5231

                      4                      5                      6
                      A                      A                      A
 Frequencies --    262.5314               377.6821               441.9039
 Red. masses --      6.9986                 8.3271                 3.7473
 Frc consts  --      0.2842                 0.6998                 0.4311
 IR Inten    --      7.0505                36.3492                 0.4058

                      7                      8                      9
                      A                      A                      A
 Frequencies --    447.4362               542.7513               547.4947
 Red. masses --      9.4925                 6.3723                 3.5322
 Frc consts  --      1.1197                 1.1060                 0.6238
 IR Inten    --      5.2884                 4.7049                 6.9694

                     10                     11                     12
                      A                      A                      A
 Frequencies --    572.4922               677.8553               699.6922
 Red. masses --      6.8534                 7.0400                 4.6521
 Frc consts  --      1.3234                 1.9059                 1.3419
 IR Inten    --      5.6959                41.6627                11.9194

                     13                     14                     15
                      A                      A                      A
 Frequencies --    767.6103               798.5354               816.2787
 Red. masses --      1.6940                 2.9335                 8.6658
 Frc consts  --      0.5881                 1.1021                 3.4020
 IR Inten    --     68.4571                 2.2421                58.2536

                     16                     17                     18
                      A                      A                      A
 Frequencies --    865.4230               867.7137               924.1416
 Red. masses --      6.3889                 1.4718                 1.0586
 Frc consts  --      2.8193                 0.6529                 0.5327
 IR Inten    --     46.1482                 6.8127               108.7982

                     19                     20                     21
                      A                      A                      A
 Frequencies --    967.0637               986.4707              1050.3352
 Red. masses --      1.3088                 1.2441                 1.9670
 Frc consts  --      0.7211                 0.7133                 1.2785
 IR Inten    --      1.8052                 1.7000                19.5815

                     22                     23                     24
                      A                      A                      A
 Frequencies --   1104.2105              1162.9262              1176.6578
 Red. masses --      2.5641                 1.6753                 1.2404
 Frc consts  --      1.8420                 1.3349                 1.0118
 IR Inten    --      6.2235                26.0807                 5.4477

                     25                     26                     27
                      A                      A                      A
 Frequencies --   1249.8930              1305.6446              1353.0029
 Red. masses --      1.7556                 4.3062                 4.6259
 Frc consts  --      1.6160                 4.3251                 4.9893
 IR Inten    --      3.6089               100.5761                54.3308

                     28                     29                     30
                      A                      A                      A
 Frequencies --   1378.7631              1461.6649              1508.9480
 Red. masses --      5.6493                 1.8651                 3.2138
 Frc consts  --      6.3274                 2.3477                 4.3114
 IR Inten    --    480.1390               121.2751               201.0365

                     31                     32                     33
                      A                      A                      A
 Frequencies --   1541.1622              1646.3240              1652.1867
 Red. masses --      2.2659                 7.5696                 4.2520
 Frc consts  --      3.1709                12.0879                 6.8385
 IR Inten    --    327.8072               433.6741               137.4117

                     34                     35                     36
                      A                      A                      A
 Frequencies --   1709.5253              2848.7988              3188.9006
 Red. masses --      3.7499                 1.0730                 1.0854
 Frc consts  --      6.4569                 5.1306                 6.5028
 IR Inten    --    198.5760              1094.7159                 6.3879

                     37                     38                     39
                      A                      A                      A
 Frequencies --   3205.1583              3215.1791              3226.6869
 Red. masses --      1.0896                 1.0939                 1.0936
 Frc consts  --      6.5952                 6.6626                 6.7082
 IR Inten    --     34.5614                40.7276                20.9301

 - Thermochemistry -
 -------------------
 Temperature   298.150 Kelvin.  Pressure   1.00000 Atm.
 Atom     1 has atomic number  8 and mass  15.99491

 Molecular mass:   137.02387 amu.
 Principal axes and moments of inertia in atomic units:
                           1         2         3
     Eigenvalues --   755.490621460.237792215.72806
           X            0.99981  -0.01953  -0.00000
           Y            0.01953   0.99981   0.00001
           Z            0.00000  -0.00001   1.00000
 This molecule is an asymmetric top.
 Rotational symmetry number  1.
 Warning -- assumption of classical behavior for rotation
           may cause significant error
 Rotational temperatures (Kelvin)      0.11465     0.05931     0.03909
 Rotational constants (GHZ):           2.38883     1.23592     0.81451
 Zero-point vibrational energy     281426.4 (Joules/Mol)
                                   67.26251 (Kcal/Mol)
 Warning -- explicit consideration of  10 degrees of freedom as
           vibrations may cause significant error
 Vibrational temperatures:    138.07   213.90   369.96   377.72   543.40
          (Kelvin)            635.80   643.76   780.90   787.72   823.69
                              975.28  1006.70  1104.42  1148.91  1174.44
                             1245.15  1248.45  1329.63  1391.39  1419.31
                             1511.20  1588.71  1673.19  1692.95  1798.32
                             1878.53  1946.67  1983.73  2103.01  2171.04
                             2217.39  2368.69  2377.13  2459.63  4098.79
                             4588.12  4611.51  4625.93  4642.48

 Zero-point correction=                           0.107190 (Hartree/Particle)
 Thermal correction to Energy=                    0.114670
 Thermal correction to Enthalpy=                  0.115614
 Thermal correction to Gibbs Free Energy=         0.074713
 Sum of electronic and zero-point Energies=           -495.488643
 Sum of electronic and thermal Energies=              -495.481162
 Sum of electronic and thermal Enthalpies=            -495.480218
 Sum of electronic and thermal Free Energies=         -495.521120

                     E (Thermal)             CV                S
                      KCal/Mol        Cal/Mol-Kelvin    Cal/Mol-Kelvin
 Total                   71.957             28.976             86.084
 Electronic               0.000              0.000              0.000
 Translational            0.889              2.981             40.657
 Rotational               0.889              2.981             29.282
 Vibrational             70.179             23.015             16.146
 Vibration     1          0.603              1.952              3.535
 Vibration     2          0.618              1.904              2.689
 Vibration     3          0.667              1.751              1.681
 Vibration     4          0.670              1.741              1.645
 Vibration     5          0.748              1.518              1.048
 Vibration     6          0.802              1.379              0.821
 Vibration     7          0.807              1.367              0.804
 Vibration     8          0.898              1.156              0.559
 Vibration     9          0.903              1.145              0.549
 Vibration    10          0.929              1.091              0.499

                           ! Non-Optimized Parameters !
 Normal termination of Gaussian 16 at Mon Jul 12 13:00:34 2021.

 ----------------------------------------------------------------------
 #p b3lyp/6-31G(d) scrf=(iefpcm,read,solvent=n-octanol) geom=allcheck g
 uess=read
 ----------------------------------------------------------------------

 Structure from the checkpoint file:  "SET_328_BBB299_conf1.geo_000_000.chk"
 -----------------------------------------
 SET_328_BBB299_conf1.geo_000_000 geometry
 -----------------------------------------
 Charge = -1 Multiplicity = 1

 SCF Done:  E(RB3LYP) =  -495.595832493     A.U. after    1 cycles
 Normal termination of Gaussian 16 at Mon Jul 12 13:00:44 2021.

 -----------------------------
 #p B3LYP/6-31G* geom=allcheck
 -----------------------------

 Structure from the checkpoint file:  "SET_328_BBB299_conf1.geo_000_000.chk"
 -----------------------------------------
 SET_328_BBB299_conf1.geo_000_000 geometry
 -----------------------------------------
 Charge = -1 Multiplicity = 1

 SCF Done:  E(RB3LYP) =  -495.501254965     A.U. after   15 cycles
 Normal termination of Gaussian 16 at Mon Jul 12 13:01:17 2021.
 Gaussian 16:  ES64L-G16RevA.03 25-Dec-2016

 --------------------------------------------------------
 #p mp2/aug-cc-pVDZ scf=tight maxdisk=180GB geom=allcheck
 --------------------------------------------------------

 Structure from the checkpoint file:  "SET_328_BBB299_conf1.geo_000_000.chk"
 -----------------------------------------
 SET_328_BBB299_conf1.geo_000_000 geometry
 -----------------------------------------
 Charge = -1 Multiplicity = 1

                         Standard orientation:
 ---------------------------------------------------------------------
 Center     Atomic      Atomic             Coordinates (Angstroms)
 Number     Number       Type             X           Y           Z
 ---------------------------------------------------------------------
      1          8           0       -2.387763    0.730963   -0.001211
      2          6           0       -1.739485   -0.379312   -0.000255
      3          8           0       -2.268183   -1.513676    0.000751
      4          6           0       -0.229305   -0.280753    0.000338
      5          6           0        0.425816    0.974706    0.000206
      6          8           0       -0.267855    2.130791    0.000773
      7          1           0       -1.240607    1.827930   -0.000661
      8          6           0        1.829749    1.028600   -0.000035
      9          1           0        2.309976    2.001739    0.000475
     10          6           0        2.575839   -0.145561   -0.000533
     11          1           0        3.660567   -0.088406    0.000042
     12          6           0        1.940481   -1.392932   -0.000108
     13          1           0        2.525021   -2.307165   -0.001300
     14          6           0        0.549561   -1.443063    0.000155
     15          1           0        0.019512   -2.388845    0.000327
 ---------------------------------------------------------------------

 SCF Done:  E(RHF) =  -492.711850612     A.U. after   17 cycles
 E2 =    -0.1544221730D+01 EUMP2 =    -0.49425607234236D+03

 The electronic state is 1-A.
 Alpha  occ. eigenvalues --  -20.42995 -20.34565 -20.33668 -11.18686 -11.17676
 Alpha  occ. eigenvalues --  -11.12978 -11.11445 -11.10794 -11.10756 -11.09585
 Alpha  occ. eigenvalues --   -1.25192  -1.20618  -1.10566  -1.01631  -0.89443
 Alpha  occ. eigenvalues --   -0.87213  -0.72480  -0.68788  -0.61702  -0.56586
 Alpha  occ. eigenvalues --   -0.54584  -0.50965  -0.47509  -0.46526  -0.44454
 Alpha  occ. eigenvalues --   -0.43450  -0.41986  -0.40132  -0.38840  -0.36099
 Alpha  occ. eigenvalues --   -0.34435  -0.24984  -0.24445  -0.23306  -0.20927
 Alpha  occ. eigenvalues --   -0.17606
 Alpha virt. eigenvalues --    0.11263   0.12198   0.13367   0.15393   0.16514
 Alpha virt. eigenvalues --    0.20748   0.20865   0.21610   0.21903   0.22815
 Alpha virt. eigenvalues --    0.23194   0.23222   0.23519   0.24018   0.25219

 Mulliken charges:
               1
     1  O   -1.085918
     2  C    0.838288
     3  O   -0.960035
     4  C    0.852044
     5  C    0.164159
     6  O   -1.027316
     7  H    0.290259
     8  C    0.818490
     9  H   -0.524465
    10  C    0.457088
    11  H   -0.461920
    12  C    0.447958
    13  H   -0.460025
    14  C    0.246545
    15  H   -0.595152
 Sum of Mulliken charges =  -1.00000

 Dipole moment (field-independent basis, Debye):
    X=              8.0827    Y=              0.1790    Z=             -0.0014  Tot=              8.0847
 Quadrupole moment (field-independent basis, Debye-Ang):
   XX=            -86.5686   YY=            -72.4531   ZZ=            -63.3464
   XY=             -4.6381   XZ=             -0.0010   YZ=              0.0052

 Normal termination of Gaussian 16 at Mon Jul 12 13:04:43 2021.
