 Gaussian 16, Revision A.03,

 ---------------------------------------------------------------
 #p b3lyp/6-31G(d) opt freq scrf=(iefpcm,read,solvent=n-octanol)
 ---------------------------------------------------------------

 -----------------------------------------
 SET_328_BBB285_conf1.geo_300_075 geometry
 -----------------------------------------
 Symbolic Z-matrix:
 Charge = -1 Multiplicity = 1

 SCF Done:  E(RB3LYP) =  -906.587352957     A.U. after   16 cycles
 SCF Done:  E(RB3LYP) =  -906.624022880     A.U. after   12 cycles
 SCF Done:  E(RB3LYP) =  -906.638709725     A.U. after   12 cycles
 SCF Done:  E(RB3LYP) =  -906.640796040     A.U. after   11 cycles
 SCF Done:  E(RB3LYP) =  -906.642482793     A.U. after   11 cycles
 SCF Done:  E(RB3LYP) =  -906.644653274     A.U. after   11 cycles
 SCF Done:  E(RB3LYP) =  -906.646737506     A.U. after   14 cycles
 SCF Done:  E(RB3LYP) =  -906.648210062     A.U. after   11 cycles
 SCF Done:  E(RB3LYP) =  -906.648630326     A.U. after   10 cycles
 SCF Done:  E(RB3LYP) =  -906.648509556     A.U. after   11 cycles
 SCF Done:  E(RB3LYP) =  -906.648754555     A.U. after   10 cycles
 SCF Done:  E(RB3LYP) =  -906.648749710     A.U. after   10 cycles
 SCF Done:  E(RB3LYP) =  -906.648754252     A.U. after   10 cycles
 SCF Done:  E(RB3LYP) =  -906.648750363     A.U. after   10 cycles
 SCF Done:  E(RB3LYP) =  -906.648754279     A.U. after   10 cycles
 SCF Done:  E(RB3LYP) =  -906.648754541     A.U. after    8 cycles
 Optimization completed.
    -- Stationary point found.
 Normal termination of Gaussian 16 at Mon Jul 12 13:50:40 2021.

 --------------------------------------------------------------------
 #P Geom=AllCheck Guess=TCheck SCRF=Check GenChk RB3LYP/6-31G(d) Freq
 --------------------------------------------------------------------

 Structure from the checkpoint file:  "SET_328_BBB285_conf1.geo_300_075.chk"
 -----------------------------------------
 SET_328_BBB285_conf1.geo_300_075 geometry
 -----------------------------------------
 Charge = -1 Multiplicity = 1

 SCF Done:  E(RB3LYP) =  -906.648754541     A.U. after    1 cycles

  Exact polarizability: 178.552   9.851 116.046   7.451 -16.478 143.540
 Approx polarizability: 209.844  13.476 138.905  12.721 -24.042 195.896

                      1                      2                      3
                      A                      A                      A
 Frequencies --      9.7307                44.9473                51.3239
 Red. masses --      5.8992                 6.3745                 7.6079
 Frc consts  --      0.0003                 0.0076                 0.0118
 IR Inten    --     13.0495                 5.0218                 8.2683

                      4                      5                      6
                      A                      A                      A
 Frequencies --     87.8404                98.1602               114.2861
 Red. masses --      6.8947                 6.0611                 3.2879
 Frc consts  --      0.0313                 0.0344                 0.0253
 IR Inten    --      6.5801                 1.9663                 4.7233

                      7                      8                      9
                      A                      A                      A
 Frequencies --    119.8088               166.7841               201.7745
 Red. masses --      8.4518                 4.2964                 8.0492
 Frc consts  --      0.0715                 0.0704                 0.1931
 IR Inten    --      2.4226                 7.6616                13.1659

                     10                     11                     12
                      A                      A                      A
 Frequencies --    222.9910               269.7625               280.7372
 Red. masses --      6.7747                 2.6481                 2.7939
 Frc consts  --      0.1985                 0.1135                 0.1297
 IR Inten    --     11.2485                51.6041                25.5797

                     13                     14                     15
                      A                      A                      A
 Frequencies --    302.6622               313.1716               320.8443
 Red. masses --      1.6226                 4.3010                 1.5591
 Frc consts  --      0.0876                 0.2485                 0.0946
 IR Inten    --    123.9573                17.0087                64.6233

                     16                     17                     18
                      A                      A                      A
 Frequencies --    384.8926               393.6384               408.4510
 Red. masses --      7.7124                 5.6515                 5.9184
 Frc consts  --      0.6732                 0.5160                 0.5817
 IR Inten    --     10.5639                 7.2249                14.9295

                     19                     20                     21
                      A                      A                      A
 Frequencies --    453.9560               504.6714               539.7874
 Red. masses --      4.0884                 2.5644                 4.4040
 Frc consts  --      0.4964                 0.3848                 0.7560
 IR Inten    --     33.4374                91.0773                51.4111

                     22                     23                     24
                      A                      A                      A
 Frequencies --    546.9005               627.4317               636.0673
 Red. masses --      1.3003                 3.8115                 4.8232
 Frc consts  --      0.2292                 0.8841                 1.1497
 IR Inten    --     89.8050                41.0920                12.3004

                     25                     26                     27
                      A                      A                      A
 Frequencies --    679.7095               727.8805               737.1104
 Red. masses --      9.5906                 1.5933                 3.9339
 Frc consts  --      2.6106                 0.4974                 1.2593
 IR Inten    --      0.9717                68.0449                 5.5144

                     28                     29                     30
                      A                      A                      A
 Frequencies --    749.5896               784.1440               790.0327
 Red. masses --      7.0473                 4.8184                 5.8813
 Frc consts  --      2.3330                 1.7456                 2.1628
 IR Inten    --     40.1747                 4.3325               128.2508

                     31                     32                     33
                      A                      A                      A
 Frequencies --    851.5389               879.0646               896.6666
 Red. masses --      3.2904                 4.9249                 1.3671
 Frc consts  --      1.4058                 2.2423                 0.6476
 IR Inten    --     61.6803                58.3151                13.9098

                     34                     35                     36
                      A                      A                      A
 Frequencies --    907.5624               935.0877              1011.3611
 Red. masses --      3.1395                 2.0376                 8.1941
 Frc consts  --      1.5236                 1.0497                 4.9382
 IR Inten    --     49.0457                 9.1275                79.0395

                     37                     38                     39
                      A                      A                      A
 Frequencies --   1027.6622              1037.1854              1051.7489
 Red. masses --      2.9859                 3.4506                 2.7899
 Frc consts  --      1.8579                 2.1870                 1.8183
 IR Inten    --     90.9738                30.8070               126.1050

                     40                     41                     42
                      A                      A                      A
 Frequencies --   1068.6135              1088.8823              1111.6078
 Red. masses --      2.7995                 5.0982                 2.9093
 Frc consts  --      1.8836                 3.5615                 2.1181
 IR Inten    --     25.6160               218.3398                38.5702

                     43                     44                     45
                      A                      A                      A
 Frequencies --   1126.0413              1149.6358              1168.9690
 Red. masses --      2.9788                 1.9762                 4.0572
 Frc consts  --      2.2254                 1.5389                 3.2665
 IR Inten    --    110.0792                13.1039                83.3226

                     46                     47                     48
                      A                      A                      A
 Frequencies --   1217.4512              1225.1165              1230.5684
 Red. masses --      1.7136                 1.3008                 1.4470
 Frc consts  --      1.4965                 1.1503                 1.2910
 IR Inten    --     97.8497                46.1450                69.6112

                     49                     50                     51
                      A                      A                      A
 Frequencies --   1243.8475              1288.7338              1312.3206
 Red. masses --      1.5452                 1.6289                 1.3158
 Frc consts  --      1.4085                 1.5940                 1.3351
 IR Inten    --      2.5473                75.4712                12.0141

                     52                     53                     54
                      A                      A                      A
 Frequencies --   1320.7511              1337.6039              1350.6193
 Red. masses --      7.5314                 1.3823                 1.4030
 Frc consts  --      7.7405                 1.4572                 1.5079
 IR Inten    --     76.8751                31.9068                17.6184

                     55                     56                     57
                      A                      A                      A
 Frequencies --   1369.0698              1378.6276              1387.8570
 Red. masses --      3.1106                 1.4421                 1.3014
 Frc consts  --      3.4351                 1.6149                 1.4769
 IR Inten    --    294.7011                44.2848                11.8679

                     58                     59                     60
                      A                      A                      A
 Frequencies --   1409.1336              1418.6273              1425.7304
 Red. masses --      1.3394                 2.6632                 1.7653
 Frc consts  --      1.5670                 3.1579                 2.1142
 IR Inten    --     37.9013                37.1883                69.6041

                     61                     62                     63
                      A                      A                      A
 Frequencies --   1436.8863              1449.6256              1451.3961
 Red. masses --      1.6368                 2.5469                 1.6052
 Frc consts  --      1.9911                 3.1534                 1.9923
 IR Inten    --    125.6677               100.1665                31.0233

                     64                     65                     66
                      A                      A                      A
 Frequencies --   1468.0345              1520.7837              1536.9019
 Red. masses --      1.9192                 1.0899                 5.8981
 Frc consts  --      2.4369                 1.4852                 8.2083
 IR Inten    --     28.2947                 1.5484                18.3306

                     67                     68                     69
                      A                      A                      A
 Frequencies --   1684.4109              3007.8805              3020.2417
 Red. masses --      7.9861                 1.0827                 1.0732
 Frc consts  --     13.3500                 5.7711                 5.7676
 IR Inten    --    493.8981                42.5921                65.8508

                     70                     71                     72
                      A                      A                      A
 Frequencies --   3046.1475              3132.2166              3154.1635
 Red. masses --      1.0859                 1.0873                 1.0865
 Frc consts  --      5.9368                 6.2848                 6.3685
 IR Inten    --    103.3778                 7.4342                20.1018

                     73                     74                     75
                      A                      A                      A
 Frequencies --   3161.8403              3314.0012              3434.1678
 Red. masses --      1.0918                 1.0970                 1.0725
 Frc consts  --      6.4310                 7.0984                 7.4521
 IR Inten    --     23.2415                 2.0123                 8.8563

                     76                     77                     78
                      A                      A                      A
 Frequencies --   3617.5179              3740.9984              3758.9511
 Red. masses --      1.0648                 1.0663                 1.0669
 Frc consts  --      8.2101                 8.7922                 8.8815
 IR Inten    --    134.8070                33.6932                95.6030

 - Thermochemistry -
 -------------------
 Temperature   298.150 Kelvin.  Pressure   1.00000 Atm.
 Atom     1 has atomic number  7 and mass  14.00307

 Molecular mass:   243.07294 amu.
 Principal axes and moments of inertia in atomic units:
                           1         2         3
     Eigenvalues --  2283.788306944.561897745.08314
           X            0.99996  -0.00545   0.00747
           Y            0.00546   0.99998  -0.00157
           Z           -0.00746   0.00161   0.99997
 This molecule is an asymmetric top.
 Rotational symmetry number  1.
 Warning -- assumption of classical behavior for rotation
           may cause significant error
 Rotational temperatures (Kelvin)      0.03793     0.01247     0.01118
 Rotational constants (GHZ):           0.79024     0.25988     0.23302
 Zero-point vibrational energy     560647.5 (Joules/Mol)
                                  133.99796 (Kcal/Mol)
 Warning -- explicit consideration of  22 degrees of freedom as
           vibrations may cause significant error
 Vibrational temperatures:     14.00    64.67    73.84   126.38   141.23
          (Kelvin)            164.43   172.38   239.97   290.31   320.83
                              388.13   403.92   435.46   450.58   461.62
                              553.77   566.36   587.67   653.14   726.11
                              776.63   786.87   902.73   915.16   977.95
                             1047.26  1060.54  1078.49  1128.21  1136.68
                             1225.17  1264.78  1290.10  1305.78  1345.38
                             1455.12  1478.58  1492.28  1513.23  1537.50
                             1566.66  1599.36  1620.12  1654.07  1681.89
                             1751.64  1762.67  1770.51  1789.62  1854.20
                             1888.14  1900.27  1924.51  1943.24  1969.79
                             1983.54  1996.82  2027.43  2041.09  2051.31
                             2067.36  2085.69  2088.24  2112.17  2188.07
                             2211.26  2423.49  4327.67  4345.45  4382.73
                             4506.56  4538.14  4549.18  4768.11  4941.00
                             5204.80  5382.46  5408.29

 Zero-point correction=                           0.213539 (Hartree/Particle)
 Thermal correction to Energy=                    0.229107
 Thermal correction to Enthalpy=                  0.230051
 Thermal correction to Gibbs Free Energy=         0.168141
 Sum of electronic and zero-point Energies=           -906.435215
 Sum of electronic and thermal Energies=              -906.419647
 Sum of electronic and thermal Enthalpies=            -906.418703
 Sum of electronic and thermal Free Energies=         -906.480614

                     E (Thermal)             CV                S
                      KCal/Mol        Cal/Mol-Kelvin    Cal/Mol-Kelvin
 Total                  143.767             57.476            130.302
 Electronic               0.000              0.000              0.000
 Translational            0.889              2.981             42.366
 Rotational               0.889              2.981             33.174
 Vibrational            141.990             51.515             54.763
 Vibration     1          0.593              1.987              8.065
 Vibration     2          0.595              1.979              5.028
 Vibration     3          0.596              1.977              4.766
 Vibration     4          0.601              1.958              3.708
 Vibration     5          0.604              1.950              3.491
 Vibration     6          0.607              1.938              3.195
 Vibration     7          0.609              1.933              3.103
 Vibration     8          0.624              1.883              2.471
 Vibration     9          0.639              1.837              2.117
 Vibration    10          0.649              1.806              1.935
 Vibration    11          0.674              1.729              1.598
 Vibration    12          0.680              1.709              1.529
 Vibration    13          0.694              1.669              1.402
 Vibration    14          0.701              1.649              1.346
 Vibration    15          0.706              1.634              1.306
 Vibration    16          0.754              1.502              1.020
 Vibration    17          0.761              1.484              0.986
 Vibration    18          0.773              1.452              0.932
 Vibration    19          0.812              1.352              0.784
 Vibration    20          0.860              1.240              0.647
 Vibration    21          0.895              1.162              0.566
 Vibration    22          0.902              1.146              0.551

                           ! Non-Optimized Parameters !
 Normal termination of Gaussian 16 at Mon Jul 12 14:15:13 2021.

 ----------------------------------------------------------------------
 #p b3lyp/6-31G(d) scrf=(iefpcm,read,solvent=n-octanol) geom=allcheck g
 uess=read
 ----------------------------------------------------------------------

 Structure from the checkpoint file:  "SET_328_BBB285_conf1.geo_300_075.chk"
 -----------------------------------------
 SET_328_BBB285_conf1.geo_300_075 geometry
 -----------------------------------------
 Charge = -1 Multiplicity = 1

 SCF Done:  E(RB3LYP) =  -906.648754541     A.U. after    2 cycles
 Normal termination of Gaussian 16 at Mon Jul 12 14:15:55 2021.

 -----------------------------
 #p B3LYP/6-31G* geom=allcheck
 -----------------------------

 Structure from the checkpoint file:  "SET_328_BBB285_conf1.geo_300_075.chk"
 -----------------------------------------
 SET_328_BBB285_conf1.geo_300_075 geometry
 -----------------------------------------
 Charge = -1 Multiplicity = 1

 SCF Done:  E(RB3LYP) =  -906.534631706     A.U. after   19 cycles
 Normal termination of Gaussian 16 at Mon Jul 12 14:18:41 2021.
 Gaussian 16:  ES64L-G16RevA.03 25-Dec-2016

 --------------------------------------------------------
 #p mp2/aug-cc-pVDZ scf=tight maxdisk=180GB geom=allcheck
 --------------------------------------------------------

 Structure from the checkpoint file:  "SET_328_BBB285_conf1.geo_300_075.chk"
 -----------------------------------------
 SET_328_BBB285_conf1.geo_300_075 geometry
 -----------------------------------------
 Charge = -1 Multiplicity = 1

                         Standard orientation:
 ---------------------------------------------------------------------
 Center     Atomic      Atomic             Coordinates (Angstroms)
 Number     Number       Type             X           Y           Z
 ---------------------------------------------------------------------
      1          7           0        3.640625    0.921328   -1.952038
      2          1           0        2.649105    0.773459   -2.156684
      3          6           0        3.847224    0.556749   -0.696871
      4          8           0        4.940802    0.588074   -0.065862
      5          6           0        2.674306    0.036427    0.116729
      6          6           0        2.694957   -0.418269    1.453524
      7          7           0        1.470941   -0.800572    1.815925
      8          1           0        3.531775   -0.483525    2.130002
      9          7           0        1.416217   -0.078735   -0.325193
     10          7           0        0.745514   -0.590988    0.711868
     11          6           0       -0.698870   -0.749125    0.709003
     12          1           0       -0.916677   -1.397815    1.557094
     13          8           0       -1.353999    0.490320    0.880010
     14          6           0       -2.028397    0.851628   -0.340846
     15          6           0       -3.207555    1.752889   -0.018127
     16          8           0       -2.833174    2.972553    0.602141
     17          1           0       -2.281677    3.467219   -0.024655
     18          1           0       -3.857642    1.228576    0.682277
     19          1           0       -3.776641    1.925723   -0.943664
     20          1           0       -1.322122    1.376071   -1.002428
     21          6           0       -2.411646   -0.481740   -0.979820
     22          8           0       -3.577721   -1.004481   -0.375204
     23          1           0       -3.394205   -1.956956   -0.253974
     24          1           0       -2.544177   -0.387321   -2.064833
     25          6           0       -1.198157   -1.361269   -0.617083
     26          1           0       -0.413316   -1.273280   -1.369595
     27          8           0       -1.566309   -2.716278   -0.394872
     28          1           0       -1.495470   -3.194633   -1.236240
 ---------------------------------------------------------------------

 SCF Done:  E(RHF) =  -901.537728472     A.U. after   16 cycles
 E2 =    -0.2816491686D+01 EUMP2 =    -0.90435422015782D+03

 The electronic state is 1-A.
 Alpha  occ. eigenvalues --  -20.53211 -20.50174 -20.49581 -20.49189 -20.31671
 Alpha  occ. eigenvalues --  -15.56210 -15.50510 -15.49695 -15.33278 -11.25151
 Alpha  occ. eigenvalues --  -11.23021 -11.22472 -11.21612 -11.20893 -11.15228
 Alpha  occ. eigenvalues --  -11.14290 -11.13798  -1.34946  -1.32894  -1.30685
 Alpha  occ. eigenvalues --   -1.29041  -1.28357  -1.15219  -1.07217  -1.02688
 Alpha  occ. eigenvalues --   -0.97913  -0.95508  -0.92422  -0.83587  -0.76947
 Alpha  occ. eigenvalues --   -0.73806  -0.72158  -0.69211  -0.65895  -0.64180
 Alpha  occ. eigenvalues --   -0.63531  -0.61486  -0.59412  -0.58292  -0.55788
 Alpha  occ. eigenvalues --   -0.54442  -0.54404  -0.52162  -0.50412  -0.49450
 Alpha  occ. eigenvalues --   -0.48495  -0.47820  -0.47061  -0.46776  -0.43701
 Alpha  occ. eigenvalues --   -0.42147  -0.39646  -0.38809  -0.38044  -0.37782
 Alpha  occ. eigenvalues --   -0.36614  -0.35935  -0.35426  -0.35039  -0.27767
 Alpha  occ. eigenvalues --   -0.24610  -0.23337  -0.21439  -0.15647
 Alpha virt. eigenvalues --    0.08847   0.10006   0.11007   0.11883   0.12792
 Alpha virt. eigenvalues --    0.13119   0.13243   0.14334   0.15213   0.16252
 Alpha virt. eigenvalues --    0.17638   0.18783   0.19089   0.19549   0.20275

 Mulliken charges:
               1
     1  N   -0.681063
     2  H   -0.025021
     3  C    0.870456
     4  O   -1.000993
     5  C    0.797308
     6  C    0.582063
     7  N   -0.529986
     8  H   -0.314831
     9  N   -0.900525
    10  N   -0.416437
    11  C    1.961698
    12  H   -0.327583
    13  O   -1.146476
    14  C   -0.043013
    15  C    1.350060
    16  O   -0.731232
    17  H    0.154050
    18  H   -0.066053
    19  H   -0.058337
    20  H   -0.308889
    21  C    1.172443
    22  O   -0.912836
    23  H    0.196561
    24  H   -0.157237
    25  C    0.512920
    26  H   -0.278143
    27  O   -0.868816
    28  H    0.169913
 Sum of Mulliken charges =  -1.00000

 Dipole moment (field-independent basis, Debye):
    X=            -17.5752    Y=             -5.1911    Z=             -0.6427  Tot=             18.3371
 Quadrupole moment (field-independent basis, Debye-Ang):
   XX=           -206.3479   YY=           -103.9568   ZZ=           -114.5074
   XY=            -10.6372   XZ=             28.4496   YZ=              4.9760

 Normal termination of Gaussian 16 at Mon Jul 12 14:57:05 2021.
