 Gaussian 16, Revision A.03,

 ---------------------------------------------------------------
 #p b3lyp/6-31G(d) opt freq scrf=(iefpcm,read,solvent=n-octanol)
 ---------------------------------------------------------------

 -----------------------------------------
 SET_328_BBB212_conf1.geo_060_045 geometry
 -----------------------------------------
 Symbolic Z-matrix:
 Charge = -1 Multiplicity = 1

 SCF Done:  E(RB3LYP) =  -731.143996374     A.U. after   13 cycles
 SCF Done:  E(RB3LYP) =  -731.175638090     A.U. after   11 cycles
 SCF Done:  E(RB3LYP) =  -731.188252996     A.U. after   12 cycles
 SCF Done:  E(RB3LYP) =  -731.190370372     A.U. after   11 cycles
 SCF Done:  E(RB3LYP) =  -731.190684727     A.U. after   11 cycles
 SCF Done:  E(RB3LYP) =  -731.190844275     A.U. after   11 cycles
 SCF Done:  E(RB3LYP) =  -731.190786410     A.U. after   10 cycles
 SCF Done:  E(RB3LYP) =  -731.190822517     A.U. after   10 cycles
 SCF Done:  E(RB3LYP) =  -731.190852696     A.U. after    9 cycles
 SCF Done:  E(RB3LYP) =  -731.190840350     A.U. after    9 cycles
 SCF Done:  E(RB3LYP) =  -731.190798297     A.U. after   10 cycles
 SCF Done:  E(RB3LYP) =  -731.190762927     A.U. after    9 cycles
 SCF Done:  E(RB3LYP) =  -731.190787545     A.U. after    8 cycles
 SCF Done:  E(RB3LYP) =  -731.190853159     A.U. after   10 cycles
 SCF Done:  E(RB3LYP) =  -731.190772591     A.U. after   10 cycles
 SCF Done:  E(RB3LYP) =  -731.190770922     A.U. after    7 cycles
 Optimization completed.
    -- Stationary point found.
 Normal termination of Gaussian 16 at Mon Jul 12 13:16:23 2021.

 --------------------------------------------------------------------
 #P Geom=AllCheck Guess=TCheck SCRF=Check GenChk RB3LYP/6-31G(d) Freq
 --------------------------------------------------------------------

 Structure from the checkpoint file:  "SET_328_BBB212_conf1.geo_060_045.chk"
 -----------------------------------------
 SET_328_BBB212_conf1.geo_060_045 geometry
 -----------------------------------------
 Charge = -1 Multiplicity = 1

 SCF Done:  E(RB3LYP) =  -731.190770922     A.U. after    1 cycles

  Exact polarizability: 266.511 -14.917 184.227  27.833  -2.663 164.425
 Approx polarizability: 318.084 -24.090 237.487  41.754  -4.327 220.374

                      1                      2                      3
                      A                      A                      A
 Frequencies --     26.5589                43.3689                49.0472
 Red. masses --      4.0244                 6.8392                 3.7137
 Frc consts  --      0.0017                 0.0076                 0.0053
 IR Inten    --      2.9544                 8.7469                 0.6143

                      4                      5                      6
                      A                      A                      A
 Frequencies --     97.4630               152.6580               181.3998
 Red. masses --      4.6480                 5.3738                 4.2123
 Frc consts  --      0.0260                 0.0738                 0.0817
 IR Inten    --      1.0368                 2.0278                 0.3152

                      7                      8                      9
                      A                      A                      A
 Frequencies --    213.6558               262.1838               279.9879
 Red. masses --      2.3915                 2.5285                 2.5863
 Frc consts  --      0.0643                 0.1024                 0.1195
 IR Inten    --      1.0134                 0.0179                 4.0829

                     10                     11                     12
                      A                      A                      A
 Frequencies --    283.6244               311.2796               330.5611
 Red. masses --      2.7707                 1.2350                 1.9307
 Frc consts  --      0.1313                 0.0705                 0.1243
 IR Inten    --      2.7692                 0.4788                 0.8406

                     13                     14                     15
                      A                      A                      A
 Frequencies --    346.9390               348.2371               372.6752
 Red. masses --      2.1500                 1.2913                 3.8168
 Frc consts  --      0.1525                 0.0923                 0.3123
 IR Inten    --     35.4356               122.0320                 1.5571

                     16                     17                     18
                      A                      A                      A
 Frequencies --    414.1747               424.3158               432.4157
 Red. masses --      3.8962                 3.1303                 3.3999
 Frc consts  --      0.3938                 0.3321                 0.3746
 IR Inten    --      8.2176                 0.5033                 0.2239

                     19                     20                     21
                      A                      A                      A
 Frequencies --    446.7994               480.2296               491.6393
 Red. masses --      4.7826                 3.7881                 3.4684
 Frc consts  --      0.5625                 0.5147                 0.4939
 IR Inten    --      7.3097                 2.2838                 2.0631

                     22                     23                     24
                      A                      A                      A
 Frequencies --    541.7881               560.3849               572.5882
 Red. masses --      4.0035                 2.2677                 2.3663
 Frc consts  --      0.6924                 0.4196                 0.4571
 IR Inten    --     12.2020                35.8973                25.2128

                     25                     26                     27
                      A                      A                      A
 Frequencies --    648.7341               651.5525               656.8462
 Red. masses --      6.2390                 5.9586                 6.8787
 Frc consts  --      1.5470                 1.4904                 1.7486
 IR Inten    --      2.5972                 2.5213                 0.0737

                     28                     29                     30
                      A                      A                      A
 Frequencies --    737.9107               750.7433               765.3720
 Red. masses --      4.2489                 3.8568                 2.7206
 Frc consts  --      1.3631                 1.2807                 0.9390
 IR Inten    --      9.1718                 3.0197                19.5992

                     31                     32                     33
                      A                      A                      A
 Frequencies --    814.2140               816.5477               841.0348
 Red. masses --      1.2468                 1.3434                 2.2910
 Frc consts  --      0.4870                 0.5277                 0.9548
 IR Inten    --      0.7150                14.1206                56.6404

                     34                     35                     36
                      A                      A                      A
 Frequencies --    843.6478               846.7699               852.8566
 Red. masses --      1.7120                 5.0048                 4.6491
 Frc consts  --      0.7179                 2.1143                 1.9924
 IR Inten    --     33.2432                13.1725                13.3345

                     37                     38                     39
                      A                      A                      A
 Frequencies --    926.1611               938.9782               941.9431
 Red. masses --      1.9141                 1.3019                 1.4277
 Frc consts  --      0.9673                 0.6763                 0.7463
 IR Inten    --      5.2520                 0.1734                 0.1974

                     40                     41                     42
                      A                      A                      A
 Frequencies --    947.5635               951.8770               958.1219
 Red. masses --      1.3254                 1.4381                 1.3374
 Frc consts  --      0.7012                 0.7677                 0.7233
 IR Inten    --      3.0424                 1.6148                 0.1624

                     43                     44                     45
                      A                      A                      A
 Frequencies --   1002.6678              1026.9678              1033.8842
 Red. masses --      2.8552                 1.4568                 2.3590
 Frc consts  --      1.6912                 0.9053                 1.4857
 IR Inten    --      6.5007                 2.4272                 7.7507

                     46                     47                     48
                      A                      A                      A
 Frequencies --   1102.3044              1122.2826              1132.3573
 Red. masses --      1.8995                 1.6596                 2.1699
 Frc consts  --      1.3599                 1.2316                 1.6393
 IR Inten    --     12.1451                13.2482                 2.4800

                     49                     50                     51
                      A                      A                      A
 Frequencies --   1137.4843              1172.5022              1201.8874
 Red. masses --      1.5227                 2.0302                 1.2800
 Frc consts  --      1.1608                 1.6445                 1.0894
 IR Inten    --     24.7821                 8.9677               289.7301

                     52                     53                     54
                      A                      A                      A
 Frequencies --   1206.7837              1212.3255              1255.0340
 Red. masses --      1.2765                 1.1850                 3.3790
 Frc consts  --      1.0953                 1.0261                 3.1358
 IR Inten    --     99.4119                14.4005                 9.9502

                     55                     56                     57
                      A                      A                      A
 Frequencies --   1265.6162              1274.9997              1301.6427
 Red. masses --      3.6617                 2.7980                 3.4051
 Frc consts  --      3.4557                 2.6799                 3.3991
 IR Inten    --     50.9846                28.5965               128.1528

                     58                     59                     60
                      A                      A                      A
 Frequencies --   1341.8292              1345.2527              1382.3349
 Red. masses --      1.7895                 2.0967                 2.0972
 Frc consts  --      1.8984                 2.2356                 2.3611
 IR Inten    --     40.6819                20.0072                26.7727

                     61                     62                     63
                      A                      A                      A
 Frequencies --   1409.1689              1420.0754              1424.2846
 Red. masses --      1.2586                 2.7454                 1.3076
 Frc consts  --      1.4725                 3.2620                 1.5628
 IR Inten    --     10.1536               196.9261                29.4098

                     64                     65                     66
                      A                      A                      A
 Frequencies --   1468.6570              1474.6563              1507.6380
 Red. masses --      3.5015                 2.8209                 1.0584
 Frc consts  --      4.4498                 3.6143                 1.4174
 IR Inten    --     18.1500                33.6226                 4.6421

                     67                     68                     69
                      A                      A                      A
 Frequencies --   1518.7841              1524.6601              1530.1372
 Red. masses --      1.0755                 1.0636                 1.0691
 Frc consts  --      1.4617                 1.4567                 1.4748
 IR Inten    --      9.4531                 8.3152                13.7766

                     70                     71                     72
                      A                      A                      A
 Frequencies --   1556.1489              1560.4394              1572.6636
 Red. masses --      4.6647                 2.5186                 3.6936
 Frc consts  --      6.6554                 3.6133                 5.3823
 IR Inten    --    197.2624               145.6189               397.8822

                     73                     74                     75
                      A                      A                      A
 Frequencies --   1646.8231              1657.2824              1674.4470
 Red. masses --      5.7573                 5.8131                 5.9332
 Frc consts  --      9.1995                 9.4071                 9.8012
 IR Inten    --     32.9701               377.7400                47.2390

                     76                     77                     78
                      A                      A                      A
 Frequencies --   3057.9766              3063.6039              3125.8132
 Red. masses --      1.0352                 1.0367                 1.1000
 Frc consts  --      5.7036                 5.7330                 6.3327
 IR Inten    --     37.1966                57.0679                16.3000

                     79                     80                     81
                      A                      A                      A
 Frequencies --   3131.3102              3133.7628              3138.2904
 Red. masses --      1.1017                 1.1023                 1.0868
 Frc consts  --      6.3646                 6.3780                 6.3064
 IR Inten    --     94.2382                78.1069                61.9720

                     82                     83                     84
                      A                      A                      A
 Frequencies --   3149.5143              3152.4155              3178.9068
 Red. masses --      1.1016                 1.0867                 1.0907
 Frc consts  --      6.4381                 6.3630                 6.4943
 IR Inten    --     49.3021                47.7350               119.1510

                     85                     86                     87
                      A                      A                      A
 Frequencies --   3186.7531              3194.4083              3210.2879
 Red. masses --      1.0902                 1.0884                 1.0877
 Frc consts  --      6.5233                 6.5436                 6.6048
 IR Inten    --     32.9192                30.3074                15.8028

                     88                     89                     90
                      A                      A                      A
 Frequencies --   3217.6528              3228.7535              3750.3226
 Red. masses --      1.0923                 1.0922                 1.0661
 Frc consts  --      6.6627                 6.7083                 8.8350
 IR Inten    --     18.9535                25.7119               101.9343

 - Thermochemistry -
 -------------------
 Temperature   298.150 Kelvin.  Pressure   1.00000 Atm.
 Atom     1 has atomic number  6 and mass  12.00000

 Molecular mass:   227.10720 amu.
 Principal axes and moments of inertia in atomic units:
                           1         2         3
     Eigenvalues --  2043.310036971.889037858.67389
           X            0.99997   0.00704   0.00312
           Y           -0.00701   0.99994  -0.00850
           Z           -0.00318   0.00848   0.99996
 This molecule is an asymmetric top.
 Rotational symmetry number  1.
 Warning -- assumption of classical behavior for rotation
           may cause significant error
 Rotational temperatures (Kelvin)      0.04239     0.01242     0.01102
 Rotational constants (GHZ):           0.88324     0.25886     0.22965
 Zero-point vibrational energy     687485.8 (Joules/Mol)
                                  164.31304 (Kcal/Mol)
 Warning -- explicit consideration of  24 degrees of freedom as
           vibrations may cause significant error
 Vibrational temperatures:     38.21    62.40    70.57   140.23   219.64
          (Kelvin)            260.99   307.40   377.22   402.84   408.07
                              447.86   475.60   499.17   501.04   536.20
                              595.91   610.50   622.15   642.84   690.94
                              707.36   779.51   806.27   823.83   933.38
                              937.44   945.06  1061.69  1080.15  1101.20
                             1171.47  1174.83  1210.06  1213.82  1218.31
                             1227.07  1332.54  1350.98  1355.25  1363.33
                             1369.54  1378.52  1442.62  1477.58  1487.53
                             1585.97  1614.71  1629.21  1636.59  1686.97
                             1729.25  1736.29  1744.27  1805.71  1820.94
                             1834.44  1872.77  1930.59  1935.52  1988.87
                             2027.48  2043.17  2049.23  2113.07  2121.70
                             2169.15  2185.19  2193.65  2201.53  2238.95
                             2245.12  2262.71  2369.41  2384.46  2409.16
                             4399.75  4407.84  4497.35  4505.26  4508.79
                             4515.30  4531.45  4535.62  4573.74  4585.03
                             4596.04  4618.89  4629.48  4645.46  5395.88

 Zero-point correction=                           0.261849 (Hartree/Particle)
 Thermal correction to Energy=                    0.276897
 Thermal correction to Enthalpy=                  0.277841
 Thermal correction to Gibbs Free Energy=         0.219148
 Sum of electronic and zero-point Energies=           -730.928921
 Sum of electronic and thermal Energies=              -730.913874
 Sum of electronic and thermal Enthalpies=            -730.912930
 Sum of electronic and thermal Free Energies=         -730.971623

                     E (Thermal)             CV                S
                      KCal/Mol        Cal/Mol-Kelvin    Cal/Mol-Kelvin
 Total                  173.755             60.293            123.531
 Electronic               0.000              0.000              0.000
 Translational            0.889              2.981             42.163
 Rotational               0.889              2.981             33.081
 Vibrational            171.978             54.331             48.287
 Vibration     1          0.593              1.984              6.071
 Vibration     2          0.595              1.980              5.099
 Vibration     3          0.595              1.978              4.855
 Vibration     4          0.603              1.951              3.504
 Vibration     5          0.619              1.900              2.639
 Vibration     6          0.630              1.865              2.314
 Vibration     7          0.644              1.820              2.012
 Vibration     8          0.669              1.742              1.647
 Vibration     9          0.680              1.711              1.534
 Vibration    10          0.682              1.704              1.512
 Vibration    11          0.700              1.652              1.356
 Vibration    12          0.713              1.614              1.257
 Vibration    13          0.725              1.581              1.180
 Vibration    14          0.726              1.579              1.174
 Vibration    15          0.744              1.528              1.069
 Vibration    16          0.778              1.439              0.912
 Vibration    17          0.786              1.417              0.877
 Vibration    18          0.793              1.400              0.851
 Vibration    19          0.806              1.368              0.806
 Vibration    20          0.837              1.294              0.709
 Vibration    21          0.847              1.269              0.679
 Vibration    22          0.897              1.158              0.561
 Vibration    23          0.916              1.117              0.523
 Vibration    24          0.929              1.091              0.499

                           ! Non-Optimized Parameters !
 Normal termination of Gaussian 16 at Mon Jul 12 13:49:27 2021.

 ----------------------------------------------------------------------
 #p b3lyp/6-31G(d) scrf=(iefpcm,read,solvent=n-octanol) geom=allcheck g
 uess=read
 ----------------------------------------------------------------------

 Structure from the checkpoint file:  "SET_328_BBB212_conf1.geo_060_045.chk"
 -----------------------------------------
 SET_328_BBB212_conf1.geo_060_045 geometry
 -----------------------------------------
 Charge = -1 Multiplicity = 1

 SCF Done:  E(RB3LYP) =  -731.190770922     A.U. after    1 cycles
 Normal termination of Gaussian 16 at Mon Jul 12 13:50:11 2021.

 -----------------------------
 #p B3LYP/6-31G* geom=allcheck
 -----------------------------

 Structure from the checkpoint file:  "SET_328_BBB212_conf1.geo_060_045.chk"
 -----------------------------------------
 SET_328_BBB212_conf1.geo_060_045 geometry
 -----------------------------------------
 Charge = -1 Multiplicity = 1

 SCF Done:  E(RB3LYP) =  -731.091535064     A.U. after   19 cycles
 Normal termination of Gaussian 16 at Mon Jul 12 13:52:53 2021.
 Gaussian 16:  ES64L-G16RevA.03 25-Dec-2016

 --------------------------------------------------------
 #p mp2/aug-cc-pVDZ scf=tight maxdisk=180GB geom=allcheck
 --------------------------------------------------------

 Structure from the checkpoint file:  "SET_328_BBB212_conf1.geo_060_045.chk"
 -----------------------------------------
 SET_328_BBB212_conf1.geo_060_045 geometry
 -----------------------------------------
 Charge = -1 Multiplicity = 1

                         Standard orientation:
 ---------------------------------------------------------------------
 Center     Atomic      Atomic             Coordinates (Angstroms)
 Number     Number       Type             X           Y           Z
 ---------------------------------------------------------------------
      1          6           0       -0.023006    2.302096    1.301095
      2          1           0       -0.921554    2.925458    1.273573
      3          1           0        0.848132    2.961247    1.367442
      4          1           0       -0.059413    1.696391    2.211874
      5          6           0        0.046239    1.424187    0.032852
      6          6           0        0.102636    2.375128   -1.180689
      7          1           0       -0.745381    3.067589   -1.202137
      8          1           0        0.114865    1.817145   -2.119317
      9          1           0        1.019191    2.969151   -1.132921
     10          6           0       -1.225666    0.555875    0.002173
     11          6           0       -1.333313   -0.551003    0.857622
     12          6           0       -2.483338   -1.333320    0.910017
     13          6           0       -3.572267   -1.029591    0.086190
     14          8           0       -4.730001   -1.761607    0.080609
     15          1           0       -4.647248   -2.493543    0.712531
     16          6           0       -3.489246    0.062354   -0.777906
     17          6           0       -2.331170    0.839917   -0.809946
     18          1           0       -2.297721    1.682741   -1.490494
     19          1           0       -4.332906    0.292714   -1.419936
     20          1           0       -2.531058   -2.184055    1.582897
     21          1           0       -0.485989   -0.811203    1.483258
     22          6           0        1.301341    0.541226    0.018097
     23          6           0        1.520058   -0.354538   -1.046666
     24          1           0        0.763701   -0.432931   -1.827973
     25          6           0        2.657015   -1.142265   -1.134678
     26          1           0        2.784257   -1.821488   -1.974318
     27          6           0        3.705373   -1.107155   -0.149611
     28          8           0        4.762815   -1.831817   -0.230417
     29          6           0        3.456187   -0.189325    0.925778
     30          1           0        4.210206   -0.114501    1.707517
     31          6           0        2.306610    0.593671    0.996635
     32          1           0        2.193702    1.269149    1.840685
 ---------------------------------------------------------------------

 SCF Done:  E(RHF) =  -726.571384219     A.U. after   18 cycles
 E2 =    -0.2501316922D+01 EUMP2 =    -0.72907270114125D+03

 The electronic state is 1-A.
 Alpha  occ. eigenvalues --  -20.52118 -20.30394 -11.21755 -11.14987 -11.14891
 Alpha  occ. eigenvalues --  -11.14540 -11.14531 -11.14145 -11.13924 -11.11999
 Alpha  occ. eigenvalues --  -11.11995 -11.11651 -11.09096 -11.08943 -11.07126
 Alpha  occ. eigenvalues --  -11.05738 -11.05370  -1.32610  -1.11846  -1.06258
 Alpha  occ. eigenvalues --   -1.00403  -0.95085  -0.92789  -0.89430  -0.85273
 Alpha  occ. eigenvalues --   -0.82783  -0.81249  -0.75891  -0.73714  -0.68312
 Alpha  occ. eigenvalues --   -0.65995  -0.64552  -0.61769  -0.57811  -0.55584
 Alpha  occ. eigenvalues --   -0.52856  -0.51697  -0.50748  -0.49601  -0.49174
 Alpha  occ. eigenvalues --   -0.48203  -0.46552  -0.46052  -0.45186  -0.43648
 Alpha  occ. eigenvalues --   -0.43034  -0.41646  -0.40081  -0.39282  -0.37476
 Alpha  occ. eigenvalues --   -0.37280  -0.36799  -0.35092  -0.33190  -0.32426
 Alpha  occ. eigenvalues --   -0.27226  -0.24908  -0.21350  -0.20227  -0.18240
 Alpha  occ. eigenvalues --   -0.09517
 Alpha virt. eigenvalues --    0.09402   0.10337   0.11294   0.12088   0.12292
 Alpha virt. eigenvalues --    0.12955   0.13648   0.13918   0.14686   0.15009
 Alpha virt. eigenvalues --    0.15607   0.16399   0.16878   0.17255   0.17560

 Mulliken charges:
               1
     1  C    0.871366
     2  H   -0.211313
     3  H   -0.042387
     4  H   -0.012027
     5  C   -0.596439
     6  C    1.068020
     7  H   -0.075425
     8  H   -0.044613
     9  H   -0.208238
    10  C    0.977663
    11  C   -0.105263
    12  C    0.038530
    13  C    0.661091
    14  O   -0.946597
    15  H    0.171490
    16  C    0.232637
    17  C    1.258013
    18  H   -0.869944
    19  H   -0.525927
    20  H   -0.597086
    21  H   -0.707709
    22  C    1.015196
    23  C    0.187490
    24  H   -0.824970
    25  C    0.209215
    26  H   -0.552364
    27  C    0.425089
    28  O   -1.148511
    29  C    0.120579
    30  H   -0.545182
    31  C    0.678305
    32  H   -0.900688
 Sum of Mulliken charges =  -1.00000

 Dipole moment (field-independent basis, Debye):
    X=            -14.5958    Y=              4.5689    Z=              1.6332  Tot=             15.3812
 Quadrupole moment (field-independent basis, Debye-Ang):
   XX=           -196.3478   YY=           -115.7822   ZZ=           -106.4504
   XY=             29.2302   XZ=              1.3373   YZ=             -5.9332

 Normal termination of Gaussian 16 at Mon Jul 12 14:43:58 2021.
