 Gaussian 16, Revision A.03,

 ---------------------------------------------------------------
 #p b3lyp/6-31G(d) opt freq scrf=(iefpcm,read,solvent=n-octanol)
 ---------------------------------------------------------------

 -----------------------------------------
 SET_328_BBB282_conf1.geo_000_270 geometry
 -----------------------------------------
 Symbolic Z-matrix:
 Charge = -1 Multiplicity = 1

 SCF Done:  E(RB3LYP) =  -799.178875136     A.U. after   16 cycles
 SCF Done:  E(RB3LYP) =  -799.224533542     A.U. after   12 cycles
 SCF Done:  E(RB3LYP) =  -799.253237808     A.U. after   12 cycles
 SCF Done:  E(RB3LYP) =  -799.249961892     A.U. after   13 cycles
 SCF Done:  E(RB3LYP) =  -799.259743960     A.U. after   12 cycles
 SCF Done:  E(RB3LYP) =  -799.261150984     A.U. after   11 cycles
 SCF Done:  E(RB3LYP) =  -799.261342268     A.U. after   11 cycles
 SCF Done:  E(RB3LYP) =  -799.261466766     A.U. after   11 cycles
 SCF Done:  E(RB3LYP) =  -799.261677929     A.U. after   10 cycles
 SCF Done:  E(RB3LYP) =  -799.261677563     A.U. after   10 cycles
 SCF Done:  E(RB3LYP) =  -799.261709073     A.U. after    8 cycles
 SCF Done:  E(RB3LYP) =  -799.261705174     A.U. after   10 cycles
 SCF Done:  E(RB3LYP) =  -799.261706260     A.U. after    8 cycles
 SCF Done:  E(RB3LYP) =  -799.261708545     A.U. after    9 cycles
 SCF Done:  E(RB3LYP) =  -799.261709015     A.U. after    8 cycles
 SCF Done:  E(RB3LYP) =  -799.261706024     A.U. after   10 cycles
 Optimization completed on the basis of negligible forces.
    -- Stationary point found.
 Normal termination of Gaussian 16 at Mon Jul 12 13:54:54 2021.

 --------------------------------------------------------------------
 #P Geom=AllCheck Guess=TCheck SCRF=Check GenChk RB3LYP/6-31G(d) Freq
 --------------------------------------------------------------------

 Structure from the checkpoint file:  "SET_328_BBB282_conf1.geo_000_270.chk"
 -----------------------------------------
 SET_328_BBB282_conf1.geo_000_270 geometry
 -----------------------------------------
 Charge = -1 Multiplicity = 1

 SCF Done:  E(RB3LYP) =  -799.261706024     A.U. after    1 cycles

  Exact polarizability: 260.869   3.076 218.032  -3.320 -13.115  84.240
 Approx polarizability: 303.084  20.011 306.582  -7.480 -25.456 109.866

                      1                      2                      3
                      A                      A                      A
 Frequencies --     50.9463                64.5701                69.4190
 Red. masses --      8.2519                 2.5379                 1.1642
 Frc consts  --      0.0126                 0.0062                 0.0033
 IR Inten    --      1.4062                 1.1812                 0.0350

                      4                      5                      6
                      A                      A                      A
 Frequencies --     94.0651                98.1325               140.2764
 Red. masses --      2.9986                 4.2885                11.4283
 Frc consts  --      0.0156                 0.0243                 0.1325
 IR Inten    --      3.3255                 1.7846                 0.4825

                      7                      8                      9
                      A                      A                      A
 Frequencies --    169.2792               205.2706               221.7820
 Red. masses --      6.4335                 5.1379                 1.4512
 Frc consts  --      0.1086                 0.1276                 0.0421
 IR Inten    --      3.8044                15.6624                 3.8172

                     10                     11                     12
                      A                      A                      A
 Frequencies --    252.6501               266.2932               295.7751
 Red. masses --      4.9629                 1.9018                 4.6415
 Frc consts  --      0.1866                 0.0795                 0.2392
 IR Inten    --      3.4742                 1.8351                 1.4522

                     13                     14                     15
                      A                      A                      A
 Frequencies --    304.2781               364.9679               377.6436
 Red. masses --      6.9497                 4.0199                 3.5784
 Frc consts  --      0.3791                 0.3155                 0.3007
 IR Inten    --     11.3689                 2.5852                 2.6372

                     16                     17                     18
                      A                      A                      A
 Frequencies --    397.6693               429.0917               441.7956
 Red. masses --      5.1667                 8.2954                 4.3440
 Frc consts  --      0.4814                 0.8999                 0.4996
 IR Inten    --      9.0105                 3.9703                 0.2632

                     19                     20                     21
                      A                      A                      A
 Frequencies --    485.0891               507.4398               543.1610
 Red. masses --      5.3327                 4.4257                 4.0069
 Frc consts  --      0.7393                 0.6714                 0.6965
 IR Inten    --      9.5499                 8.1045                12.2749

                     22                     23                     24
                      A                      A                      A
 Frequencies --    567.3964               644.3510               663.0440
 Red. masses --      5.6740                 4.1744                 4.8044
 Frc consts  --      1.0763                 1.0212                 1.2444
 IR Inten    --      1.1433                 1.8659                24.1969

                     25                     26                     27
                      A                      A                      A
 Frequencies --    715.5003               723.4276               748.9172
 Red. masses --      7.7788                 5.2955                 8.9732
 Frc consts  --      2.3463                 1.6329                 2.9653
 IR Inten    --      0.9861                 7.2467               150.6491

                     28                     29                     30
                      A                      A                      A
 Frequencies --    783.3578               788.6754               803.1105
 Red. masses --      7.2571                 5.4598                 1.2675
 Frc consts  --      2.6238                 2.0009                 0.4817
 IR Inten    --      0.4173                 0.1010                13.1609

                     31                     32                     33
                      A                      A                      A
 Frequencies --    816.2668               862.7128               886.6488
 Red. masses --      3.7253                 1.6278                 5.4101
 Frc consts  --      1.4624                 0.7138                 2.5058
 IR Inten    --     53.5854                 4.0032                31.4388

                     34                     35                     36
                      A                      A                      A
 Frequencies --    947.7181               977.7397               994.6229
 Red. masses --      4.0694                 2.2327                 1.3581
 Frc consts  --      2.1535                 1.2575                 0.7916
 IR Inten    --      9.1862                 5.8674                 7.6194

                     37                     38                     39
                      A                      A                      A
 Frequencies --   1016.0835              1038.2976              1069.6493
 Red. masses --      1.3300                 1.8551                 1.5782
 Frc consts  --      0.8090                 1.1783                 1.0639
 IR Inten    --      0.2064                 0.0428                 8.0234

                     40                     41                     42
                      A                      A                      A
 Frequencies --   1076.4209              1112.9708              1122.6689
 Red. masses --      3.1697                 2.0890                 1.9156
 Frc consts  --      2.1639                 1.5246                 1.4225
 IR Inten    --      1.1004                 2.0748                13.2928

                     43                     44                     45
                      A                      A                      A
 Frequencies --   1162.6918              1165.4364              1251.7493
 Red. masses --      1.7476                 1.7511                 2.0080
 Frc consts  --      1.3919                 1.4014                 1.8537
 IR Inten    --     67.2628                33.2838                15.0913

                     46                     47                     48
                      A                      A                      A
 Frequencies --   1269.5454              1291.6210              1328.3433
 Red. masses --      3.1726                 1.8912                 3.4884
 Frc consts  --      3.0128                 1.8589                 3.6266
 IR Inten    --      9.5551               219.3814               137.9187

                     49                     50                     51
                      A                      A                      A
 Frequencies --   1355.2783              1374.8997              1389.0044
 Red. masses --      4.8081                 8.9209                 2.6476
 Frc consts  --      5.2033                 9.9358                 3.0096
 IR Inten    --    109.5611               727.1740                45.6421

                     52                     53                     54
                      A                      A                      A
 Frequencies --   1396.9429              1416.4950              1427.9558
 Red. masses --      2.0383                 1.4976                 1.3273
 Frc consts  --      2.3436                 1.7704                 1.5946
 IR Inten    --     28.6653                21.8028                 2.2145

                     55                     56                     57
                      A                      A                      A
 Frequencies --   1436.1831              1476.1906              1501.0298
 Red. masses --      1.3057                 3.3919                 1.2824
 Frc consts  --      1.5868                 4.3549                 1.7023
 IR Inten    --     19.1964               410.2195                18.2477

                     58                     59                     60
                      A                      A                      A
 Frequencies --   1501.7235              1505.4460              1517.2157
 Red. masses --      1.0639                 1.0941                 1.0634
 Frc consts  --      1.4137                 1.4609                 1.4423
 IR Inten    --     11.6494                 7.0255                22.5495

                     61                     62                     63
                      A                      A                      A
 Frequencies --   1527.8568              1535.1013              1595.2996
 Red. masses --      1.7426                 1.4259                 5.2749
 Frc consts  --      2.3967                 1.9797                 7.9095
 IR Inten    --     76.3820                39.1191                42.9036

                     64                     65                     66
                      A                      A                      A
 Frequencies --   1640.7444              1647.2839              1672.4740
 Red. masses --      7.5364                 7.7760                10.4074
 Frc consts  --     11.9535                12.4321                17.1519
 IR Inten    --    218.7235                54.6421               166.6809

                     67                     68                     69
                      A                      A                      A
 Frequencies --   1717.4392              3069.1689              3073.5451
 Red. masses --     11.8011                 1.0370                 1.0351
 Frc consts  --     20.5086                 5.7555                 5.7611
 IR Inten    --   1258.1300                26.9742                28.1362

                     70                     71                     72
                      A                      A                      A
 Frequencies --   3114.4979              3127.4666              3142.8299
 Red. masses --      1.0643                 1.1009                 1.1030
 Frc consts  --      6.0828                 6.3444                 6.4192
 IR Inten    --     30.4546                16.9129                34.1027

                     73                     74                     75
                      A                      A                      A
 Frequencies --   3152.2522              3158.0409              3181.1575
 Red. masses --      1.1007                 1.1025                 1.1045
 Frc consts  --      6.4441                 6.4782                 6.5853
 IR Inten    --     35.0811                24.0751                19.0473

                     76                     77                     78
                      A                      A                      A
 Frequencies --   3215.3770              3230.5797              3256.9828
 Red. masses --      1.0884                 1.0944                 1.0900
 Frc consts  --      6.6301                 6.7295                 6.8124
 IR Inten    --      9.8073                18.5131                 4.6982

 - Thermochemistry -
 -------------------
 Temperature   298.150 Kelvin.  Pressure   1.00000 Atm.
 Atom     1 has atomic number  6 and mass  12.00000

 Molecular mass:   231.07697 amu.
 Principal axes and moments of inertia in atomic units:
                           1         2         3
     Eigenvalues --  2274.204945205.630777283.24932
           X            0.99999  -0.00485   0.00019
           Y            0.00485   0.99995   0.00827
           Z           -0.00023  -0.00827   0.99997
 This molecule is an asymmetric top.
 Rotational symmetry number  1.
 Warning -- assumption of classical behavior for rotation
           may cause significant error
 Rotational temperatures (Kelvin)      0.03809     0.01664     0.01189
 Rotational constants (GHZ):           0.79357     0.34669     0.24779
 Zero-point vibrational energy     568017.0 (Joules/Mol)
                                  135.75932 (Kcal/Mol)
 Warning -- explicit consideration of  22 degrees of freedom as
           vibrations may cause significant error
 Vibrational temperatures:     73.30    92.90    99.88   135.34   141.19
          (Kelvin)            201.83   243.55   295.34   319.09   363.51
                              383.14   425.55   437.79   525.11   543.34
                              572.16   617.37   635.65   697.94   730.09
                              781.49   816.36   927.08   953.97  1029.45
                             1040.85  1077.52  1127.08  1134.73  1155.50
                             1174.43  1241.25  1275.69  1363.56  1406.75
                             1431.04  1461.92  1493.88  1538.99  1548.73
                             1601.32  1615.27  1672.85  1676.80  1800.99
                             1826.59  1858.35  1911.19  1949.94  1978.17
                             1998.47  2009.89  2038.02  2054.51  2066.35
                             2123.91  2159.65  2160.65  2166.00  2182.93
                             2198.25  2208.67  2295.28  2360.67  2370.07
                             2406.32  2471.01  4415.85  4422.15  4481.07
                             4499.73  4521.83  4535.39  4543.72  4576.98
                             4626.21  4648.08  4686.07

 Zero-point correction=                           0.216346 (Hartree/Particle)
 Thermal correction to Energy=                    0.231084
 Thermal correction to Enthalpy=                  0.232028
 Thermal correction to Gibbs Free Energy=         0.174111
 Sum of electronic and zero-point Energies=           -799.045360
 Sum of electronic and thermal Energies=              -799.030622
 Sum of electronic and thermal Enthalpies=            -799.029678
 Sum of electronic and thermal Free Energies=         -799.087595

                     E (Thermal)             CV                S
                      KCal/Mol        Cal/Mol-Kelvin    Cal/Mol-Kelvin
 Total                  145.007             55.621            121.897
 Electronic               0.000              0.000              0.000
 Translational            0.889              2.981             42.215
 Rotational               0.889              2.981             32.822
 Vibrational            143.230             49.660             46.860
 Vibration     1          0.595              1.977              4.780
 Vibration     2          0.597              1.971              4.312
 Vibration     3          0.598              1.969              4.170
 Vibration     4          0.603              1.953              3.574
 Vibration     5          0.604              1.950              3.491
 Vibration     6          0.615              1.913              2.800
 Vibration     7          0.625              1.880              2.443
 Vibration     8          0.640              1.832              2.085
 Vibration     9          0.648              1.808              1.944
 Vibration    10          0.664              1.758              1.712
 Vibration    11          0.672              1.735              1.620
 Vibration    12          0.690              1.682              1.441
 Vibration    13          0.695              1.666              1.393
 Vibration    14          0.738              1.544              1.101
 Vibration    15          0.748              1.518              1.049
 Vibration    16          0.764              1.475              0.971
 Vibration    17          0.790              1.407              0.862
 Vibration    18          0.802              1.379              0.821
 Vibration    19          0.841              1.283              0.696
 Vibration    20          0.863              1.234              0.640
 Vibration    21          0.898              1.155              0.559
 Vibration    22          0.923              1.102              0.509

 Optimization completed on the basis of negligible forces.
    -- Stationary point found.
 Normal termination of Gaussian 16 at Mon Jul 12 14:20:57 2021.

 ----------------------------------------------------------------------
 #p b3lyp/6-31G(d) scrf=(iefpcm,read,solvent=n-octanol) geom=allcheck g
 uess=read
 ----------------------------------------------------------------------

 Structure from the checkpoint file:  "SET_328_BBB282_conf1.geo_000_270.chk"
 -----------------------------------------
 SET_328_BBB282_conf1.geo_000_270 geometry
 -----------------------------------------
 Charge = -1 Multiplicity = 1

 SCF Done:  E(RB3LYP) =  -799.261706024     A.U. after    1 cycles
 Normal termination of Gaussian 16 at Mon Jul 12 14:21:38 2021.

 -----------------------------
 #p B3LYP/6-31G* geom=allcheck
 -----------------------------

 Structure from the checkpoint file:  "SET_328_BBB282_conf1.geo_000_270.chk"
 -----------------------------------------
 SET_328_BBB282_conf1.geo_000_270 geometry
 -----------------------------------------
 Charge = -1 Multiplicity = 1

 SCF Done:  E(RB3LYP) =  -799.145926483     A.U. after   17 cycles
 Normal termination of Gaussian 16 at Mon Jul 12 14:23:47 2021.
 Gaussian 16:  ES64L-G16RevA.03 25-Dec-2016

 --------------------------------------------------------
 #p mp2/aug-cc-pVDZ scf=tight maxdisk=180GB geom=allcheck
 --------------------------------------------------------

 Structure from the checkpoint file:  "SET_328_BBB282_conf1.geo_000_270.chk"
 -----------------------------------------
 SET_328_BBB282_conf1.geo_000_270 geometry
 -----------------------------------------
 Charge = -1 Multiplicity = 1

                         Standard orientation:
 ---------------------------------------------------------------------
 Center     Atomic      Atomic             Coordinates (Angstroms)
 Number     Number       Type             X           Y           Z
 ---------------------------------------------------------------------
      1          6           0        0.959849    3.278545    0.921875
      2          1           0        0.087580    3.337301    1.578518
      3          1           0        1.328613    4.294388    0.752083
      4          1           0        1.742664    2.708635    1.428763
      5          6           0        0.600763    2.629756   -0.411717
      6          1           0        1.478953    2.561076   -1.051234
      7          1           0       -0.167292    3.205965   -0.930253
      8          7           0        0.065468    1.269524   -0.257064
      9          6           0       -1.280946    1.068681   -0.209051
     10          1           0       -1.891155    1.954480   -0.323991
     11          6           0       -1.924099   -0.128548   -0.041924
     12          6           0       -3.457260   -0.069815   -0.081494
     13          8           0       -4.094306   -1.150893   -0.021063
     14          8           0       -3.958039    1.089260   -0.188528
     15          6           0       -1.116832   -1.333559    0.138033
     16          8           0       -1.531134   -2.481815    0.345531
     17          6           0        0.350113   -1.095555    0.055750
     18          6           0        1.247501   -2.162473    0.166045
     19          1           0        0.828244   -3.151681    0.314908
     20          6           0        2.610840   -1.933659    0.083708
     21          1           0        3.324418   -2.746169    0.165252
     22          6           0        3.069243   -0.618627   -0.108872
     23          6           0        4.540099   -0.312553   -0.212499
     24          1           0        4.771709    0.132218   -1.185520
     25          1           0        5.142713   -1.214745   -0.090888
     26          1           0        4.836698    0.413015    0.550948
     27          7           0        2.233964    0.419754   -0.212158
     28          6           0        0.915505    0.182499   -0.135112
 ---------------------------------------------------------------------

 SCF Done:  E(RHF) =  -794.469305657     A.U. after   18 cycles
 E2 =    -0.2576755439D+01 EUMP2 =    -0.79704606109633D+03

 The electronic state is 1-A.
 Alpha  occ. eigenvalues --  -20.39356 -20.31068 -20.30758 -15.51924 -15.48163
 Alpha  occ. eigenvalues --  -11.23839 -11.21601 -11.20387 -11.19129 -11.17777
 Alpha  occ. eigenvalues --  -11.17399 -11.16700 -11.16332 -11.15157 -11.14899
 Alpha  occ. eigenvalues --  -11.14138 -11.09622  -1.23500  -1.21985  -1.17965
 Alpha  occ. eigenvalues --   -1.15628  -1.07510  -1.00965  -0.98224  -0.96173
 Alpha  occ. eigenvalues --   -0.91062  -0.88482  -0.79902  -0.78029  -0.75918
 Alpha  occ. eigenvalues --   -0.70800  -0.64762  -0.61600  -0.61274  -0.56283
 Alpha  occ. eigenvalues --   -0.55112  -0.53753  -0.52305  -0.51716  -0.51113
 Alpha  occ. eigenvalues --   -0.50259  -0.48364  -0.47050  -0.46344  -0.45573
 Alpha  occ. eigenvalues --   -0.44690  -0.43923  -0.42571  -0.41698  -0.40390
 Alpha  occ. eigenvalues --   -0.39606  -0.37865  -0.35941  -0.33968  -0.29156
 Alpha  occ. eigenvalues --   -0.28461  -0.23971  -0.22237  -0.20947  -0.19782
 Alpha  occ. eigenvalues --   -0.18755
 Alpha virt. eigenvalues --    0.08697   0.09695   0.10635   0.11109   0.12064
 Alpha virt. eigenvalues --    0.12615   0.13362   0.14114   0.15195   0.15505
 Alpha virt. eigenvalues --    0.16659   0.16929   0.17417   0.18269   0.18837

 Mulliken charges:
               1
     1  C    0.542852
     2  H   -0.090289
     3  H   -0.096498
     4  H   -0.071715
     5  C    0.607794
     6  H   -0.185873
     7  H   -0.272326
     8  N   -0.319682
     9  C    0.683974
    10  H   -0.746890
    11  C    0.376384
    12  C    0.859783
    13  O   -0.974349
    14  O   -1.031172
    15  C    0.160323
    16  O   -0.972791
    17  C    1.571360
    18  C   -0.363119
    19  H   -0.681693
    20  C    0.690041
    21  H   -0.587453
    22  C   -0.236861
    23  C    0.676225
    24  H    0.091342
    25  H   -0.129077
    26  H    0.079670
    27  N   -0.724797
    28  C    0.144838
 Sum of Mulliken charges =  -1.00000

 Dipole moment (field-independent basis, Debye):
    X=             19.4476    Y=              4.3766    Z=             -0.2060  Tot=             19.9350
 Quadrupole moment (field-independent basis, Debye-Ang):
   XX=           -183.0594   YY=           -113.6601   ZZ=           -103.4880
   XY=            -11.7882   XZ=             -0.6942   YZ=              0.9025

 Normal termination of Gaussian 16 at Mon Jul 12 15:05:10 2021.
