 Gaussian 16, Revision A.03,

 ---------------------------------------------------------------
 #p b3lyp/6-31G(d) opt freq scrf=(iefpcm,read,solvent=n-octanol)
 ---------------------------------------------------------------

 -----------------------------------------
 SET_328_BBB304_conf1.geo_210_285 geometry
 -----------------------------------------
 Symbolic Z-matrix:
 Charge =  1 Multiplicity = 1

 SCF Done:  E(RB3LYP) =  -741.143184870     A.U. after   13 cycles
 SCF Done:  E(RB3LYP) =  -741.180033941     A.U. after   11 cycles
 SCF Done:  E(RB3LYP) =  -741.194668591     A.U. after   11 cycles
 SCF Done:  E(RB3LYP) =  -741.196709160     A.U. after   11 cycles
 SCF Done:  E(RB3LYP) =  -741.198093802     A.U. after   11 cycles
 SCF Done:  E(RB3LYP) =  -741.198357903     A.U. after   12 cycles
 SCF Done:  E(RB3LYP) =  -741.198624233     A.U. after   12 cycles
 SCF Done:  E(RB3LYP) =  -741.199039485     A.U. after   10 cycles
 SCF Done:  E(RB3LYP) =  -741.199062317     A.U. after    8 cycles
 SCF Done:  E(RB3LYP) =  -741.199108332     A.U. after    9 cycles
 SCF Done:  E(RB3LYP) =  -741.199128262     A.U. after    9 cycles
 SCF Done:  E(RB3LYP) =  -741.199131100     A.U. after    8 cycles
 SCF Done:  E(RB3LYP) =  -741.199134792     A.U. after    8 cycles
 SCF Done:  E(RB3LYP) =  -741.199136529     A.U. after    8 cycles
 SCF Done:  E(RB3LYP) =  -741.199138531     A.U. after    8 cycles
 SCF Done:  E(RB3LYP) =  -741.199140289     A.U. after    7 cycles
 Optimization completed.
    -- Stationary point found.
 Normal termination of Gaussian 16 at Mon Jul 12 13:24:44 2021.

 --------------------------------------------------------------------
 #P Geom=AllCheck Guess=TCheck SCRF=Check GenChk RB3LYP/6-31G(d) Freq
 --------------------------------------------------------------------

 Structure from the checkpoint file:  "SET_328_BBB304_conf1.geo_210_285.chk"
 -----------------------------------------
 SET_328_BBB304_conf1.geo_210_285 geometry
 -----------------------------------------
 Charge =  1 Multiplicity = 1

 SCF Done:  E(RB3LYP) =  -741.199140289     A.U. after    1 cycles

  Exact polarizability: 193.836  16.305 150.353  -2.968 -12.607  88.666
 Approx polarizability: 215.310  19.722 194.250  -6.681 -20.768 113.870

                      1                      2                      3
                      A                      A                      A
 Frequencies --     31.8860                53.6383                69.8283
 Red. masses --      5.3077                 4.0319                 4.9653
 Frc consts  --      0.0032                 0.0068                 0.0143
 IR Inten    --      3.2260                 8.9641                 3.1416

                      4                      5                      6
                      A                      A                      A
 Frequencies --    106.1205               122.6382               174.4595
 Red. masses --      3.5921                 3.5454                 5.2387
 Frc consts  --      0.0238                 0.0314                 0.0939
 IR Inten    --      3.3258                 3.6981                 2.2702

                      7                      8                      9
                      A                      A                      A
 Frequencies --    192.8321               210.5383               219.5166
 Red. masses --      5.1280                 2.7971                 3.6411
 Frc consts  --      0.1123                 0.0730                 0.1034
 IR Inten    --      2.5714                 0.2453                 4.2807

                     10                     11                     12
                      A                      A                      A
 Frequencies --    283.7545               367.6917               382.7015
 Red. masses --      4.8180                 3.4421                 3.9559
 Frc consts  --      0.2286                 0.2742                 0.3414
 IR Inten    --      5.8711                 2.0617                19.5714

                     13                     14                     15
                      A                      A                      A
 Frequencies --    393.2527               400.6548               428.2233
 Red. masses --      1.6768                 1.2530                 2.1438
 Frc consts  --      0.1528                 0.1185                 0.2316
 IR Inten    --     86.0586               331.1573               123.8163

                     16                     17                     18
                      A                      A                      A
 Frequencies --    438.0258               485.8777               525.8932
 Red. masses --      2.8808                 2.6609                 1.0408
 Frc consts  --      0.3257                 0.3701                 0.1696
 IR Inten    --      6.7307                 8.1572                 7.3274

                     19                     20                     21
                      A                      A                      A
 Frequencies --    545.5312               577.0115               595.4905
 Red. masses --      4.1784                 5.1104                 2.5360
 Frc consts  --      0.7326                 1.0025                 0.5298
 IR Inten    --      4.5719                 6.7741                 9.0780

                     22                     23                     24
                      A                      A                      A
 Frequencies --    618.3582               686.6101               708.4412
 Red. masses --      5.5266                 3.6474                 3.2052
 Frc consts  --      1.2451                 1.0131                 0.9478
 IR Inten    --      6.6354                28.9653                 9.3434

                     25                     26                     27
                      A                      A                      A
 Frequencies --    717.1051               766.2068               790.2249
 Red. masses --      1.3115                 6.0270                 4.3582
 Frc consts  --      0.3974                 2.0847                 1.6035
 IR Inten    --     60.9554               111.3380                24.8579

                     28                     29                     30
                      A                      A                      A
 Frequencies --    796.9528               805.3472               835.8861
 Red. masses --      1.9270                 3.8642                 3.1874
 Frc consts  --      0.7211                 1.4766                 1.3122
 IR Inten    --     39.0273                 5.0696                38.0633

                     31                     32                     33
                      A                      A                      A
 Frequencies --    887.0577               940.6489               956.4937
 Red. masses --      1.7136                 1.6057                 2.4635
 Frc consts  --      0.7944                 0.8371                 1.3279
 IR Inten    --     12.2104                12.6161                32.7115

                     34                     35                     36
                      A                      A                      A
 Frequencies --   1001.3124              1011.9627              1022.3911
 Red. masses --      1.9633                 1.8790                 1.5118
 Frc consts  --      1.1598                 1.1337                 0.9311
 IR Inten    --     10.4401                 4.8417                 3.4458

                     37                     38                     39
                      A                      A                      A
 Frequencies --   1037.6476              1083.9629              1089.1196
 Red. masses --      3.0332                 2.4100                 4.5678
 Frc consts  --      1.9242                 1.6684                 3.1923
 IR Inten    --     40.9314                 8.2736               139.4823

                     40                     41                     42
                      A                      A                      A
 Frequencies --   1102.8140              1123.3320              1132.2045
 Red. masses --      2.0628                 2.9903                 2.7282
 Frc consts  --      1.4782                 2.2232                 2.0605
 IR Inten    --    123.3376               294.4320               105.9001

                     43                     44                     45
                      A                      A                      A
 Frequencies --   1143.6811              1195.7501              1213.8604
 Red. masses --      2.6478                 1.4376                 1.5716
 Frc consts  --      2.0406                 1.2110                 1.3644
 IR Inten    --     15.4489                 6.1558                 1.1285

                     46                     47                     48
                      A                      A                      A
 Frequencies --   1232.8017              1240.1076              1254.2024
 Red. masses --      1.3953                 1.2414                 6.1077
 Frc consts  --      1.2494                 1.1248                 5.6606
 IR Inten    --     67.9575                14.7888                 7.5263

                     49                     50                     51
                      A                      A                      A
 Frequencies --   1310.0515              1314.5624              1338.9389
 Red. masses --      1.2835                 1.4607                 1.3086
 Frc consts  --      1.2978                 1.4873                 1.3823
 IR Inten    --     61.9102               226.0529                 2.2631

                     52                     53                     54
                      A                      A                      A
 Frequencies --   1358.8331              1364.9612              1386.1895
 Red. masses --      1.4139                 1.4354                 1.3534
 Frc consts  --      1.5382                 1.5756                 1.5322
 IR Inten    --     76.4909                 8.0454                28.0013

                     55                     56                     57
                      A                      A                      A
 Frequencies --   1401.1099              1415.5713              1436.6223
 Red. masses --      1.3614                 1.2580                 1.6290
 Frc consts  --      1.5746                 1.4852                 1.9809
 IR Inten    --     23.9834                29.0358                36.1367

                     58                     59                     60
                      A                      A                      A
 Frequencies --   1448.0771              1473.4555              1510.7292
 Red. masses --      1.4525                 1.9240                 1.0894
 Frc consts  --      1.7945                 2.4611                 1.4650
 IR Inten    --     45.6920                10.1712                 3.1390

                     61                     62                     63
                      A                      A                      A
 Frequencies --   1518.7458              1528.6670              1579.5991
 Red. masses --      1.0904                 1.1070                 5.9461
 Frc consts  --      1.4819                 1.5242                 8.7413
 IR Inten    --      3.0172                 4.7118               225.3346

                     64                     65                     66
                      A                      A                      A
 Frequencies --   1626.2747              1676.7574              1705.1730
 Red. masses --      2.1908                 2.0527                 2.8403
 Frc consts  --      3.4138                 3.4003                 4.8657
 IR Inten    --     16.3734                72.4908              1322.9457

                     67                     68                     69
                      A                      A                      A
 Frequencies --   1819.4866              3030.4874              3052.7878
 Red. masses --      9.1819                 1.0697                 1.0844
 Frc consts  --     17.9094                 5.7883                 5.9544
 IR Inten    --    762.4328                41.5072                58.8417

                     70                     71                     72
                      A                      A                      A
 Frequencies --   3085.3375              3101.3553              3125.7623
 Red. masses --      1.0653                 1.0688                 1.0948
 Frc consts  --      5.9750                 6.0568                 6.3023
 IR Inten    --     29.5465                15.5051                48.2582

                     73                     74                     75
                      A                      A                      A
 Frequencies --   3126.8280              3146.4821              3180.4201
 Red. masses --      1.0881                 1.1014                 1.0997
 Frc consts  --      6.2682                 6.4247                 6.5538
 IR Inten    --      7.7296                23.8848                11.9997

                     76                     77                     78
                      A                      A                      A
 Frequencies --   3278.1093              3288.3277              3531.8294
 Red. masses --      1.0912                 1.0965                 1.0782
 Frc consts  --      6.9087                 6.9856                 7.9244
 IR Inten    --      5.2105                13.7886               241.1931

                     79                     80                     81
                      A                      A                      A
 Frequencies --   3578.5458              3689.1464              3742.4614
 Red. masses --      1.0473                 1.1069                 1.0659
 Frc consts  --      7.9021                 8.8761                 8.7957
 IR Inten    --    449.3473               161.1089                44.4850

 - Thermochemistry -
 -------------------
 Temperature   298.150 Kelvin.  Pressure   1.00000 Atm.
 Atom     1 has atomic number  7 and mass  14.00307

 Molecular mass:   212.10352 amu.
 Principal axes and moments of inertia in atomic units:
                           1         2         3
     Eigenvalues --  1436.638855488.024156533.21354
           X            0.99987   0.01639   0.00077
           Y           -0.01640   0.99983   0.00846
           Z           -0.00063  -0.00847   0.99996
 This molecule is an asymmetric top.
 Rotational symmetry number  1.
 Warning -- assumption of classical behavior for rotation
           may cause significant error
 Rotational temperatures (Kelvin)      0.06029     0.01578     0.01326
 Rotational constants (GHZ):           1.25622     0.32885     0.27624
 Zero-point vibrational energy     641029.3 (Joules/Mol)
                                  153.20969 (Kcal/Mol)
 Warning -- explicit consideration of  22 degrees of freedom as
           vibrations may cause significant error
 Vibrational temperatures:     45.88    77.17   100.47   152.68   176.45
          (Kelvin)            251.01   277.44   302.92   315.84   408.26
                              529.03   550.62   565.80   576.45   616.12
                              630.22   699.07   756.64   784.90   830.19
                              856.78   889.68   987.88  1019.29  1031.75
                             1102.40  1136.96  1146.64  1158.71  1202.65
                             1276.28  1353.38  1376.18  1440.67  1455.99
                             1470.99  1492.94  1559.58  1567.00  1586.70
                             1616.22  1628.99  1645.50  1720.42  1746.47
                             1773.73  1784.24  1804.52  1884.87  1891.36
                             1926.43  1955.06  1963.87  1994.42  2015.88
                             2036.69  2066.98  2083.46  2119.97  2173.60
                             2185.14  2199.41  2272.69  2339.85  2412.48
                             2453.36  2617.84  4360.20  4392.28  4439.11
                             4462.16  4497.27  4498.81  4527.09  4575.92
                             4716.47  4731.17  5081.51  5148.73  5307.86
                             5384.57

 Zero-point correction=                           0.244155 (Hartree/Particle)
 Thermal correction to Energy=                    0.257901
 Thermal correction to Enthalpy=                  0.258845
 Thermal correction to Gibbs Free Energy=         0.202884
 Sum of electronic and zero-point Energies=           -740.954985
 Sum of electronic and thermal Energies=              -740.941239
 Sum of electronic and thermal Enthalpies=            -740.940295
 Sum of electronic and thermal Free Energies=         -740.996256

                     E (Thermal)             CV                S
                      KCal/Mol        Cal/Mol-Kelvin    Cal/Mol-Kelvin
 Total                  161.835             53.128            117.780
 Electronic               0.000              0.000              0.000
 Translational            0.889              2.981             41.959
 Rotational               0.889              2.981             32.310
 Vibrational            160.058             47.167             43.510
 Vibration     1          0.594              1.983              5.708
 Vibration     2          0.596              1.976              4.679
 Vibration     3          0.598              1.969              4.158
 Vibration     4          0.605              1.944              3.339
 Vibration     5          0.610              1.930              3.058
 Vibration     6          0.627              1.874              2.387
 Vibration     7          0.635              1.850              2.200
 Vibration     8          0.643              1.825              2.039
 Vibration     9          0.647              1.811              1.963
 Vibration    10          0.682              1.704              1.511
 Vibration    11          0.740              1.539              1.089
 Vibration    12          0.752              1.507              1.028
 Vibration    13          0.760              1.485              0.988
 Vibration    14          0.766              1.469              0.960
 Vibration    15          0.790              1.409              0.864
 Vibration    16          0.798              1.387              0.833
 Vibration    17          0.842              1.281              0.694
 Vibration    18          0.881              1.193              0.596
 Vibration    19          0.901              1.149              0.554
 Vibration    20          0.933              1.081              0.491
 Vibration    21          0.953              1.041              0.457
 Vibration    22          0.978              0.993              0.419

                           ! Non-Optimized Parameters !
 Normal termination of Gaussian 16 at Mon Jul 12 13:46:05 2021.

 ----------------------------------------------------------------------
 #p b3lyp/6-31G(d) scrf=(iefpcm,read,solvent=n-octanol) geom=allcheck g
 uess=read
 ----------------------------------------------------------------------

 Structure from the checkpoint file:  "SET_328_BBB304_conf1.geo_210_285.chk"
 -----------------------------------------
 SET_328_BBB304_conf1.geo_210_285 geometry
 -----------------------------------------
 Charge =  1 Multiplicity = 1

 SCF Done:  E(RB3LYP) =  -741.199140289     A.U. after    1 cycles
 Normal termination of Gaussian 16 at Mon Jul 12 13:46:35 2021.

 -----------------------------
 #p B3LYP/6-31G* geom=allcheck
 -----------------------------

 Structure from the checkpoint file:  "SET_328_BBB304_conf1.geo_210_285.chk"
 -----------------------------------------
 SET_328_BBB304_conf1.geo_210_285 geometry
 -----------------------------------------
 Charge =  1 Multiplicity = 1

 SCF Done:  E(RB3LYP) =  -741.102585235     A.U. after   14 cycles
 Normal termination of Gaussian 16 at Mon Jul 12 13:48:06 2021.
 Gaussian 16:  ES64L-G16RevA.03 25-Dec-2016

 --------------------------------------------------------
 #p mp2/aug-cc-pVDZ scf=tight maxdisk=180GB geom=allcheck
 --------------------------------------------------------

 Structure from the checkpoint file:  "SET_328_BBB304_conf1.geo_210_285.chk"
 -----------------------------------------
 SET_328_BBB304_conf1.geo_210_285 geometry
 -----------------------------------------
 Charge =  1 Multiplicity = 1

                         Standard orientation:
 ---------------------------------------------------------------------
 Center     Atomic      Atomic             Coordinates (Angstroms)
 Number     Number       Type             X           Y           Z
 ---------------------------------------------------------------------
      1          7           0       -4.477041   -1.198860    0.337459
      2          1           0       -5.271720   -0.581059    0.215948
      3          1           0       -4.667677   -2.163293    0.579130
      4          6           0       -3.228398   -0.784502    0.165293
      5          6           0       -2.102798   -1.633703    0.308833
      6          6           0       -0.863594   -1.101619    0.107401
      7          1           0        0.043866   -1.686197    0.171854
      8          1           0       -2.227534   -2.676845    0.559286
      9          7           0       -2.997294    0.513120   -0.169020
     10          6           0       -1.739017    1.082403   -0.381142
     11          8           0       -1.593304    2.248787   -0.687703
     12          7           0       -0.674203    0.202435   -0.208624
     13          6           0        0.695590    0.777278   -0.449049
     14          8           0        1.616054   -0.273654   -0.521671
     15          1           0        0.622371    1.283117   -1.413086
     16          6           0        1.143657    1.715632    0.686095
     17          1           0        0.584825    1.480580    1.595789
     18          1           0        0.965112    2.760847    0.438394
     19          6           0        2.625863    1.357742    0.849920
     20          1           0        2.998189    1.555185    1.857344
     21          1           0        3.241974    1.918983    0.140603
     22          6           0        2.653412   -0.126228    0.496073
     23          1           0        2.382865   -0.754951    1.353727
     24          6           0        3.947312   -0.633313   -0.114276
     25          1           0        4.749360   -0.540709    0.622627
     26          1           0        4.203392   -0.001632   -0.976620
     27          8           0        3.876374   -2.002534   -0.469087
     28          1           0        3.205547   -2.078136   -1.166673
     29          1           0       -3.775971    1.164321   -0.284226
 ---------------------------------------------------------------------

 SCF Done:  E(RHF) =  -736.828253743     A.U. after   14 cycles
 E2 =    -0.2336060171D+01 EUMP2 =    -0.73916431391392D+03

 The electronic state is 1-A.
 Alpha  occ. eigenvalues --  -20.71341 -20.70826 -20.66370 -15.82034 -15.80054
 Alpha  occ. eigenvalues --  -15.79974 -11.57918 -11.57260 -11.50056 -11.47842
 Alpha  occ. eigenvalues --  -11.41385 -11.40920 -11.38388 -11.36312 -11.35342
 Alpha  occ. eigenvalues --   -1.59408  -1.54127  -1.51087  -1.45983  -1.44901
 Alpha  occ. eigenvalues --   -1.39989  -1.25225  -1.19706  -1.16089  -1.10484
 Alpha  occ. eigenvalues --   -1.08176  -1.02799  -0.97003  -0.95622  -0.94531
 Alpha  occ. eigenvalues --   -0.92232  -0.89326  -0.86752  -0.85962  -0.83593
 Alpha  occ. eigenvalues --   -0.82150  -0.80473  -0.80048  -0.77217  -0.75825
 Alpha  occ. eigenvalues --   -0.74465  -0.73577  -0.71074  -0.69944  -0.69313
 Alpha  occ. eigenvalues --   -0.67840  -0.65071  -0.63930  -0.62772  -0.61905
 Alpha  occ. eigenvalues --   -0.61138  -0.60199  -0.58812  -0.57499  -0.53840
 Alpha  occ. eigenvalues --   -0.50998
 Alpha virt. eigenvalues --   -0.08682  -0.08578  -0.06468  -0.05669  -0.04595
 Alpha virt. eigenvalues --   -0.04020  -0.03405  -0.02910  -0.02611  -0.02099
 Alpha virt. eigenvalues --   -0.01571  -0.01210  -0.01085  -0.00152   0.00268

 Mulliken charges:
               1
     1  N   -0.278264
     2  H   -0.015277
     3  H    0.046955
     4  C    0.698408
     5  C    1.527263
     6  C    0.450684
     7  H   -0.495336
     8  H   -0.496060
     9  N   -0.593969
    10  C    0.815437
    11  O   -0.707757
    12  N   -0.338676
    13  C    1.062350
    14  O   -1.219031
    15  H   -0.381597
    16  C    0.540489
    17  H   -0.220624
    18  H   -0.114602
    19  C    0.559278
    20  H   -0.092540
    21  H   -0.146226
    22  C    0.182136
    23  H   -0.271898
    24  C    1.220427
    25  H   -0.088985
    26  H   -0.057627
    27  O   -0.705170
    28  H    0.184149
    29  H   -0.063938
 Sum of Mulliken charges =   1.00000

 Dipole moment (field-independent basis, Debye):
    X=            -10.9832    Y=             -2.2856    Z=              1.8826  Tot=             11.3754
 Quadrupole moment (field-independent basis, Debye-Ang):
   XX=            -21.4712   YY=            -82.3436   ZZ=            -84.6985
   XY=             23.3763   XZ=             -1.5695   YZ=              0.2127

 Normal termination of Gaussian 16 at Mon Jul 12 14:13:22 2021.
