 Gaussian 16, Revision A.03,

 ---------------------------------------------------------------
 #p b3lyp/6-31G(d) opt freq scrf=(iefpcm,read,solvent=n-octanol)
 ---------------------------------------------------------------

 -----------------------------------------
 SET_328_BBB299_conf1.geo_180_000 geometry
 -----------------------------------------
 Symbolic Z-matrix:
 Charge = -1 Multiplicity = 1

 SCF Done:  E(RB3LYP) =  -495.569200405     A.U. after   13 cycles
 SCF Done:  E(RB3LYP) =  -495.591279615     A.U. after   12 cycles
 SCF Done:  E(RB3LYP) =  -495.587091760     A.U. after   12 cycles
 SCF Done:  E(RB3LYP) =  -495.591757694     A.U. after   12 cycles
 SCF Done:  E(RB3LYP) =  -495.595576074     A.U. after   11 cycles
 SCF Done:  E(RB3LYP) =  -495.595659938     A.U. after   11 cycles
 SCF Done:  E(RB3LYP) =  -495.595542572     A.U. after   10 cycles
 SCF Done:  E(RB3LYP) =  -495.595838172     A.U. after   10 cycles
 SCF Done:  E(RB3LYP) =  -495.595854721     A.U. after   10 cycles
 SCF Done:  E(RB3LYP) =  -495.595867861     A.U. after   10 cycles
 SCF Done:  E(RB3LYP) =  -495.595872630     A.U. after    8 cycles
 Optimization completed.
    -- Stationary point found.
 Normal termination of Gaussian 16 at Mon Jul 12 12:54:47 2021.

 --------------------------------------------------------------------
 #P Geom=AllCheck Guess=TCheck SCRF=Check GenChk RB3LYP/6-31G(d) Freq
 --------------------------------------------------------------------

 Structure from the checkpoint file:  "SET_328_BBB299_conf1.geo_180_000.chk"
 -----------------------------------------
 SET_328_BBB299_conf1.geo_180_000 geometry
 -----------------------------------------
 Charge = -1 Multiplicity = 1

 SCF Done:  E(RB3LYP) =  -495.595872630     A.U. after    1 cycles

  Exact polarizability: 134.004  -1.216 122.865   0.006   0.006  34.989
 Approx polarizability: 166.679  -3.821 176.543   0.010   0.006  46.268

                      1                      2                      3
                      A                      A                      A
 Frequencies --     98.3714               148.7041               257.0983
 Red. masses --     10.5970                 5.6319                 5.7074
 Frc consts  --      0.0604                 0.0734                 0.2223
 IR Inten    --      0.8732                 1.7707                 1.5249

                      4                      5                      6
                      A                      A                      A
 Frequencies --    259.8591               378.9048               441.6499
 Red. masses --      6.9125                 8.3077                 3.7487
 Frc consts  --      0.2750                 0.7027                 0.4308
 IR Inten    --      6.8036                37.4297                 0.4271

                      7                      8                      9
                      A                      A                      A
 Frequencies --    447.7294               542.5275               546.9118
 Red. masses --      9.5309                 6.3397                 3.4958
 Frc consts  --      1.1257                 1.0994                 0.6161
 IR Inten    --      5.1558                 4.6573                 7.1296

                     10                     11                     12
                      A                      A                      A
 Frequencies --    572.1381               677.5863               699.7856
 Red. masses --      6.8665                 7.0182                 4.6163
 Frc consts  --      1.3243                 1.8985                 1.3319
 IR Inten    --      5.9049                42.3084                11.9373

                     13                     14                     15
                      A                      A                      A
 Frequencies --    766.7445               798.2945               816.3270
 Red. masses --      1.6421                 3.1338                 8.6684
 Frc consts  --      0.5688                 1.1766                 3.4034
 IR Inten    --     69.3117                 1.1800                59.2114

                     16                     17                     18
                      A                      A                      A
 Frequencies --    864.5102               867.1463               932.6203
 Red. masses --      6.3029                 1.4749                 1.0581
 Frc consts  --      2.7754                 0.6534                 0.5422
 IR Inten    --     46.9221                 5.9882               108.8067

                     19                     20                     21
                      A                      A                      A
 Frequencies --    964.1865               985.5996              1049.3298
 Red. masses --      1.3067                 1.2477                 1.9424
 Frc consts  --      0.7157                 0.7141                 1.2601
 IR Inten    --      2.0258                 1.9848                18.8665

                     22                     23                     24
                      A                      A                      A
 Frequencies --   1103.4536              1163.1510              1176.2581
 Red. masses --      2.6056                 1.6751                 1.2398
 Frc consts  --      1.8692                 1.3352                 1.0106
 IR Inten    --      6.0878                25.5670                 4.9877

                     25                     26                     27
                      A                      A                      A
 Frequencies --   1247.8380              1305.8958              1353.1397
 Red. masses --      1.7590                 4.3346                 4.7472
 Frc consts  --      1.6137                 4.3553                 5.1212
 IR Inten    --      3.0842                96.2375                53.1983

                     28                     29                     30
                      A                      A                      A
 Frequencies --   1376.8311              1461.8867              1508.7700
 Red. masses --      5.3709                 1.8946                 3.2215
 Frc consts  --      5.9987                 2.3856                 4.3207
 IR Inten    --    480.3010               123.2165               203.5443

                     31                     32                     33
                      A                      A                      A
 Frequencies --   1541.6413              1645.6287              1653.1322
 Red. masses --      2.2789                 7.5156                 4.2701
 Frc consts  --      3.1911                11.9916                 6.8756
 IR Inten    --    338.2866               447.7995               131.6875

                     34                     35                     36
                      A                      A                      A
 Frequencies --   1709.7940              2824.7898              3190.0028
 Red. masses --      3.6747                 1.0734                 1.0852
 Frc consts  --      6.3293                 5.0466                 6.5066
 IR Inten    --    189.8567              1116.2140                 5.7166

                     37                     38                     39
                      A                      A                      A
 Frequencies --   3205.5498              3216.2355              3225.5880
 Red. masses --      1.0896                 1.0935                 1.0941
 Frc consts  --      6.5965                 6.6647                 6.7072
 IR Inten    --     33.3505                41.6884                22.6581

 - Thermochemistry -
 -------------------
 Temperature   298.150 Kelvin.  Pressure   1.00000 Atm.
 Atom     1 has atomic number  8 and mass  15.99491

 Molecular mass:   137.02387 amu.
 Principal axes and moments of inertia in atomic units:
                           1         2         3
     Eigenvalues --   754.802761461.375792216.17849
           X            0.99981  -0.01951   0.00001
           Y            0.01951   0.99981   0.00001
           Z           -0.00001  -0.00001   1.00000
 This molecule is an asymmetric top.
 Rotational symmetry number  1.
 Warning -- assumption of classical behavior for rotation
           may cause significant error
 Rotational temperatures (Kelvin)      0.11475     0.05927     0.03908
 Rotational constants (GHZ):           2.39101     1.23496     0.81435
 Zero-point vibrational energy     281275.6 (Joules/Mol)
                                   67.22649 (Kcal/Mol)
 Warning -- explicit consideration of  10 degrees of freedom as
           vibrations may cause significant error
 Vibrational temperatures:    141.53   213.95   369.91   373.88   545.16
          (Kelvin)            635.44   644.18   780.58   786.88   823.18
                              974.90  1006.84  1103.17  1148.57  1174.51
                             1243.84  1247.63  1341.83  1387.25  1418.06
                             1509.75  1587.62  1673.51  1692.37  1795.36
                             1878.89  1946.87  1980.95  2103.33  2170.78
                             2218.08  2367.69  2378.49  2460.01  4064.24
                             4589.70  4612.07  4627.45  4640.90

 Zero-point correction=                           0.107132 (Hartree/Particle)
 Thermal correction to Energy=                    0.114611
 Thermal correction to Enthalpy=                  0.115555
 Thermal correction to Gibbs Free Energy=         0.074670
 Sum of electronic and zero-point Energies=           -495.488740
 Sum of electronic and thermal Energies=              -495.481261
 Sum of electronic and thermal Enthalpies=            -495.480317
 Sum of electronic and thermal Free Energies=         -495.521203

                     E (Thermal)             CV                S
                      KCal/Mol        Cal/Mol-Kelvin    Cal/Mol-Kelvin
 Total                   71.920             28.980             86.051
 Electronic               0.000              0.000              0.000
 Translational            0.889              2.981             40.657
 Rotational               0.889              2.981             29.282
 Vibrational             70.142             23.019             16.113
 Vibration     1          0.604              1.950              3.486
 Vibration     2          0.618              1.904              2.689
 Vibration     3          0.667              1.751              1.681
 Vibration     4          0.668              1.746              1.663
 Vibration     5          0.749              1.515              1.044
 Vibration     6          0.801              1.379              0.821
 Vibration     7          0.807              1.366              0.803
 Vibration     8          0.898              1.156              0.560
 Vibration     9          0.902              1.146              0.551
 Vibration    10          0.928              1.092              0.500

 Optimization completed.
    -- Stationary point found.
 Normal termination of Gaussian 16 at Mon Jul 12 13:00:03 2021.

 ----------------------------------------------------------------------
 #p b3lyp/6-31G(d) scrf=(iefpcm,read,solvent=n-octanol) geom=allcheck g
 uess=read
 ----------------------------------------------------------------------

 Structure from the checkpoint file:  "SET_328_BBB299_conf1.geo_180_000.chk"
 -----------------------------------------
 SET_328_BBB299_conf1.geo_180_000 geometry
 -----------------------------------------
 Charge = -1 Multiplicity = 1

 SCF Done:  E(RB3LYP) =  -495.595872630     A.U. after    1 cycles
 Normal termination of Gaussian 16 at Mon Jul 12 13:00:13 2021.

 -----------------------------
 #p B3LYP/6-31G* geom=allcheck
 -----------------------------

 Structure from the checkpoint file:  "SET_328_BBB299_conf1.geo_180_000.chk"
 -----------------------------------------
 SET_328_BBB299_conf1.geo_180_000 geometry
 -----------------------------------------
 Charge = -1 Multiplicity = 1

 SCF Done:  E(RB3LYP) =  -495.501342672     A.U. after   15 cycles
 Normal termination of Gaussian 16 at Mon Jul 12 13:00:45 2021.
 Gaussian 16:  ES64L-G16RevA.03 25-Dec-2016

 --------------------------------------------------------
 #p mp2/aug-cc-pVDZ scf=tight maxdisk=180GB geom=allcheck
 --------------------------------------------------------

 Structure from the checkpoint file:  "SET_328_BBB299_conf1.geo_180_000.chk"
 -----------------------------------------
 SET_328_BBB299_conf1.geo_180_000 geometry
 -----------------------------------------
 Charge = -1 Multiplicity = 1

                         Standard orientation:
 ---------------------------------------------------------------------
 Center     Atomic      Atomic             Coordinates (Angstroms)
 Number     Number       Type             X           Y           Z
 ---------------------------------------------------------------------
      1          8           0       -2.273040   -1.512785    0.000413
      2          6           0       -1.740104   -0.380212    0.000062
      3          8           0       -2.384661    0.732580   -0.000117
      4          6           0       -0.228775   -0.283035   -0.000161
      5          6           0        0.424761    0.973667   -0.000068
      6          8           0       -0.269986    2.128476   -0.000187
      7          1           0       -1.243290    1.822525   -0.000080
      8          6           0        1.828223    1.029105    0.000302
      9          1           0        2.306636    2.002951    0.000624
     10          6           0        2.576554   -0.142775    0.000198
     11          1           0        3.661112   -0.083092    0.000463
     12          6           0        1.943448   -1.391373   -0.000167
     13          1           0        2.529216   -2.304782   -0.000431
     14          6           0        0.552620   -1.443921   -0.000331
     15          1           0        0.027462   -2.392507   -0.000463
 ---------------------------------------------------------------------

 SCF Done:  E(RHF) =  -492.711822583     A.U. after   17 cycles
 E2 =    -0.1544342370D+01 EUMP2 =    -0.49425616495281D+03

 The electronic state is 1-A.
 Alpha  occ. eigenvalues --  -20.42925 -20.34604 -20.33708 -11.18734 -11.17656
 Alpha  occ. eigenvalues --  -11.12966 -11.11466 -11.10787 -11.10725 -11.09604
 Alpha  occ. eigenvalues --   -1.25165  -1.20626  -1.10599  -1.01632  -0.89441
 Alpha  occ. eigenvalues --   -0.87203  -0.72478  -0.68765  -0.61708  -0.56563
 Alpha  occ. eigenvalues --   -0.54597  -0.50980  -0.47506  -0.46521  -0.44436
 Alpha  occ. eigenvalues --   -0.43465  -0.41970  -0.40141  -0.38840  -0.36093
 Alpha  occ. eigenvalues --   -0.34430  -0.25007  -0.24466  -0.23344  -0.20941
 Alpha  occ. eigenvalues --   -0.17582
 Alpha virt. eigenvalues --    0.11264   0.12199   0.13372   0.15383   0.16518
 Alpha virt. eigenvalues --    0.20747   0.20863   0.21610   0.21906   0.22814
 Alpha virt. eigenvalues --    0.23199   0.23224   0.23522   0.24020   0.25218

 Mulliken charges:
               1
     1  O   -0.960127
     2  C    0.841902
     3  O   -1.087751
     4  C    0.851528
     5  C    0.147663
     6  O   -1.029596
     7  H    0.293235
     8  C    0.825022
     9  H   -0.526019
    10  C    0.452663
    11  H   -0.461587
    12  C    0.446024
    13  H   -0.461263
    14  C    0.261672
    15  H   -0.593367
 Sum of Mulliken charges =  -1.00000

 Dipole moment (field-independent basis, Debye):
    X=              8.0734    Y=              0.1680    Z=             -0.0004  Tot=              8.0751
 Quadrupole moment (field-independent basis, Debye-Ang):
   XX=            -86.5510   YY=            -72.4747   ZZ=            -63.3464
   XY=             -4.6396   XZ=              0.0029   YZ=              0.0047

 Normal termination of Gaussian 16 at Mon Jul 12 13:04:08 2021.
