 Gaussian 16, Revision A.03,

 ---------------------------------------------------------------
 #p b3lyp/6-31G(d) opt freq scrf=(iefpcm,read,solvent=n-octanol)
 ---------------------------------------------------------------

 -----------------------------------------
 SET_328_BBB212_conf1.geo_135_120 geometry
 -----------------------------------------
 Symbolic Z-matrix:
 Charge = -1 Multiplicity = 1

 SCF Done:  E(RB3LYP) =  -731.144016803     A.U. after   13 cycles
 SCF Done:  E(RB3LYP) =  -731.175524347     A.U. after   12 cycles
 SCF Done:  E(RB3LYP) =  -731.189456180     A.U. after   12 cycles
 SCF Done:  E(RB3LYP) =  -731.190110472     A.U. after   10 cycles
 SCF Done:  E(RB3LYP) =  -731.188978769     A.U. after   11 cycles
 SCF Done:  E(RB3LYP) =  -731.190566548     A.U. after   11 cycles
 SCF Done:  E(RB3LYP) =  -731.190565526     A.U. after   10 cycles
 SCF Done:  E(RB3LYP) =  -731.190633974     A.U. after   10 cycles
 SCF Done:  E(RB3LYP) =  -731.190650459     A.U. after    9 cycles
 SCF Done:  E(RB3LYP) =  -731.190652160     A.U. after    9 cycles
 SCF Done:  E(RB3LYP) =  -731.190647409     A.U. after    8 cycles
 SCF Done:  E(RB3LYP) =  -731.190644230     A.U. after    7 cycles
 SCF Done:  E(RB3LYP) =  -731.190644356     A.U. after    7 cycles
 Optimization completed.
    -- Stationary point found.
 Normal termination of Gaussian 16 at Mon Jul 12 13:00:01 2021.

 --------------------------------------------------------------------
 #P Geom=AllCheck Guess=TCheck SCRF=Check GenChk RB3LYP/6-31G(d) Freq
 --------------------------------------------------------------------

 Structure from the checkpoint file:  "SET_328_BBB212_conf1.geo_135_120.chk"
 -----------------------------------------
 SET_328_BBB212_conf1.geo_135_120 geometry
 -----------------------------------------
 Charge = -1 Multiplicity = 1

 SCF Done:  E(RB3LYP) =  -731.190644356     A.U. after    1 cycles

  Exact polarizability: 267.053  15.076 184.911 -27.774  -2.480 162.954
 Approx polarizability: 318.837  24.354 238.524 -41.659  -4.119 218.251

 ******    1 imaginary frequencies (negative Signs) ******

                      1                      2                      3
                      A                      A                      A
 Frequencies --    -20.4910                40.9260                45.1273
 Red. masses --      3.7089                 5.2947                 4.5500
 Frc consts  --      0.0009                 0.0052                 0.0055
 IR Inten    --      2.6233                 5.7847                 3.2559

                      4                      5                      6
                      A                      A                      A
 Frequencies --     89.1740               150.6267               174.2201
 Red. masses --      4.7367                 5.5319                 4.1586
 Frc consts  --      0.0222                 0.0739                 0.0744
 IR Inten    --      1.0882                 1.9181                 0.4427

                      7                      8                      9
                      A                      A                      A
 Frequencies --    214.5688               261.3010               274.9988
 Red. masses --      2.8645                 3.1719                 3.1583
 Frc consts  --      0.0777                 0.1276                 0.1407
 IR Inten    --      1.1879                 0.4569                 3.2358

                     10                     11                     12
                      A                      A                      A
 Frequencies --    292.4885               300.6701               326.8775
 Red. masses --      1.6979                 1.4874                 1.7840
 Frc consts  --      0.0856                 0.0792                 0.1123
 IR Inten    --      2.6503                 0.6789                 1.4947

                     13                     14                     15
                      A                      A                      A
 Frequencies --    349.3418               367.7303               369.0123
 Red. masses --      2.4787                 1.1477                 3.2459
 Frc consts  --      0.1782                 0.0914                 0.2604
 IR Inten    --      1.8067               147.7005                 7.9494

                     16                     17                     18
                      A                      A                      A
 Frequencies --    412.1824               422.9894               431.8948
 Red. masses --      3.8188                 3.1284                 3.3693
 Frc consts  --      0.3823                 0.3298                 0.3703
 IR Inten    --      8.3340                 1.0778                 0.4001

                     19                     20                     21
                      A                      A                      A
 Frequencies --    444.3747               477.9174               490.6123
 Red. masses --      4.7410                 3.8400                 3.5975
 Frc consts  --      0.5516                 0.5168                 0.5102
 IR Inten    --      7.2669                 2.8134                 2.4187

                     22                     23                     24
                      A                      A                      A
 Frequencies --    540.1778               555.4965               569.2247
 Red. masses --      4.2019                 2.2539                 2.3999
 Frc consts  --      0.7224                 0.4098                 0.4582
 IR Inten    --     13.8211                34.9618                25.1231

                     25                     26                     27
                      A                      A                      A
 Frequencies --    648.5180               651.6483               656.8203
 Red. masses --      5.9156                 6.4072                 6.8376
 Frc consts  --      1.4659                 1.6030                 1.7380
 IR Inten    --      3.8872                 1.4768                 0.0682

                     28                     29                     30
                      A                      A                      A
 Frequencies --    735.6347               748.4508               767.9202
 Red. masses --      4.2170                 3.7535                 2.8286
 Frc consts  --      1.3445                 1.2388                 0.9828
 IR Inten    --      8.1239                 2.4703                20.8625

                     31                     32                     33
                      A                      A                      A
 Frequencies --    814.8186               821.2447               839.0990
 Red. masses --      1.2501                 1.2819                 1.7141
 Frc consts  --      0.4890                 0.5094                 0.7111
 IR Inten    --      0.4819                 7.6806                38.3712

                     34                     35                     36
                      A                      A                      A
 Frequencies --    842.0538               846.7715               852.9759
 Red. masses --      2.3140                 5.4353                 4.9631
 Frc consts  --      0.9667                 2.2962                 2.1276
 IR Inten    --     57.8296                14.4065                12.5123

                     37                     38                     39
                      A                      A                      A
 Frequencies --    929.0210               938.7409               942.9410
 Red. masses --      1.8421                 1.2946                 1.3019
 Frc consts  --      0.9367                 0.6722                 0.6820
 IR Inten    --      4.8180                 0.0334                 0.4574

                     40                     41                     42
                      A                      A                      A
 Frequencies --    950.3617               952.2627               961.0699
 Red. masses --      1.4793                 1.5632                 1.3206
 Frc consts  --      0.7872                 0.8352                 0.7187
 IR Inten    --      0.9472                 0.4170                 3.6139

                     43                     44                     45
                      A                      A                      A
 Frequencies --   1003.8483              1031.5048              1042.7981
 Red. masses --      2.8691                 2.6342                 1.3487
 Frc consts  --      1.7034                 1.6514                 0.8641
 IR Inten    --      5.9868                 4.8557                 4.8555

                     46                     47                     48
                      A                      A                      A
 Frequencies --   1107.2039              1124.4351              1135.3827
 Red. masses --      1.8101                 1.6261                 1.7216
 Frc consts  --      1.3074                 1.2114                 1.3076
 IR Inten    --     12.1807                11.0182                16.7697

                     49                     50                     51
                      A                      A                      A
 Frequencies --   1139.8766              1176.3252              1201.1178
 Red. masses --      1.8925                 2.0312                 1.2729
 Frc consts  --      1.4488                 1.6560                 1.0820
 IR Inten    --     13.1564                 9.3173               285.7317

                     52                     53                     54
                      A                      A                      A
 Frequencies --   1206.1048              1212.1574              1259.9070
 Red. masses --      1.2096                 1.2806                 3.2406
 Frc consts  --      1.0367                 1.1086                 3.0308
 IR Inten    --     43.7653                69.1387                10.3786

                     55                     56                     57
                      A                      A                      A
 Frequencies --   1269.3050              1277.9749              1300.3607
 Red. masses --      3.4623                 2.7371                 3.4033
 Frc consts  --      3.2866                 2.6338                 3.3906
 IR Inten    --     38.8600                40.1267               132.6424

                     58                     59                     60
                      A                      A                      A
 Frequencies --   1340.7334              1343.8804              1381.2395
 Red. masses --      1.7979                 2.0369                 2.1896
 Frc consts  --      1.9041                 2.1674                 2.4613
 IR Inten    --     38.9796                21.3023                25.4840

                     61                     62                     63
                      A                      A                      A
 Frequencies --   1417.0585              1422.3391              1431.5033
 Red. masses --      1.3840                 2.4282                 1.2408
 Frc consts  --      1.6375                 2.8942                 1.4981
 IR Inten    --     41.3018               195.6462                 3.0648

                     64                     65                     66
                      A                      A                      A
 Frequencies --   1470.4089              1474.1180              1508.9058
 Red. masses --      3.5600                 2.8209                 1.0523
 Frc consts  --      4.5349                 3.6116                 1.4116
 IR Inten    --     16.0850                37.3444                 2.2427

                     67                     68                     69
                      A                      A                      A
 Frequencies --   1517.4341              1525.7348              1532.5155
 Red. masses --      1.0745                 1.0653                 1.0750
 Frc consts  --      1.4577                 1.4611                 1.4875
 IR Inten    --      8.9507                 7.7258                17.4758

                     70                     71                     72
                      A                      A                      A
 Frequencies --   1555.9441              1560.1546              1574.3410
 Red. masses --      4.6227                 2.4947                 3.8418
 Frc consts  --      6.5938                 3.5778                 5.6103
 IR Inten    --    196.3783               140.6705               402.1086

                     73                     74                     75
                      A                      A                      A
 Frequencies --   1645.9220              1658.9236              1673.4767
 Red. masses --      5.7603                 5.8585                 5.9582
 Frc consts  --      9.1942                 9.4993                 9.8311
 IR Inten    --     30.1152               381.4782                46.2495

                     76                     77                     78
                      A                      A                      A
 Frequencies --   3055.2700              3060.9177              3122.8576
 Red. masses --      1.0351                 1.0358                 1.1005
 Frc consts  --      5.6929                 5.7176                 6.3233
 IR Inten    --     38.8470                52.3361                26.6581

                     79                     80                     81
                      A                      A                      A
 Frequencies --   3129.2618              3131.2737              3140.6775
 Red. masses --      1.1024                 1.1022                 1.1005
 Frc consts  --      6.3600                 6.3674                 6.3958
 IR Inten    --     80.5070                85.8665                37.0135

                     82                     83                     84
                      A                      A                      A
 Frequencies --   3145.7318              3163.2709              3172.3015
 Red. masses --      1.0872                 1.0859                 1.0920
 Frc consts  --      6.3389                 6.4020                 6.4746
 IR Inten    --     59.0045                53.9996               101.1818

                     85                     86                     87
                      A                      A                      A
 Frequencies --   3189.0897              3190.6528              3206.3674
 Red. masses --      1.0890                 1.0909                 1.0892
 Frc consts  --      6.5254                 6.5433                 6.5976
 IR Inten    --     33.7265                55.6245                20.5290

                     88                     89                     90
                      A                      A                      A
 Frequencies --   3218.1530              3237.5720              3747.7791
 Red. masses --      1.0918                 1.0905                 1.0662
 Frc consts  --      6.6623                 6.7348                 8.8232
 IR Inten    --     14.2265                24.0919               101.5973

 - Thermochemistry -
 -------------------
 Temperature   298.150 Kelvin.  Pressure   1.00000 Atm.
 Atom     1 has atomic number  6 and mass  12.00000

 Molecular mass:   227.10720 amu.
 Principal axes and moments of inertia in atomic units:
                           1         2         3
     Eigenvalues --  2034.189976971.725517864.77199
           X            0.99997  -0.00694  -0.00312
           Y            0.00691   0.99994  -0.00818
           Z            0.00317   0.00816   0.99996
 This molecule is an asymmetric top.
 Rotational symmetry number  1.
 Warning -- assumption of classical behavior for rotation
           may cause significant error
 Rotational temperatures (Kelvin)      0.04258     0.01242     0.01101
 Rotational constants (GHZ):           0.88720     0.25887     0.22947
    1 imaginary frequencies ignored.
 Zero-point vibrational energy     687472.3 (Joules/Mol)
                                  164.30983 (Kcal/Mol)
 Warning -- explicit consideration of  23 degrees of freedom as
           vibrations may cause significant error
 Vibrational temperatures:     58.88    64.93   128.30   216.72   250.66
          (Kelvin)            308.72   375.95   395.66   420.83   432.60
                              470.30   502.62   529.08   530.93   593.04
                              608.59   621.40   639.36   687.62   705.88
                              777.20   799.24   818.99   933.07   937.58
                              945.02  1058.41  1076.85  1104.87  1172.34
                             1181.59  1207.28  1211.53  1218.32  1227.24
                             1336.65  1350.64  1356.68  1367.36  1370.09
                             1382.77  1444.31  1484.11  1500.35  1593.02
                             1617.81  1633.56  1640.03  1692.47  1728.14
                             1735.32  1744.02  1812.73  1826.25  1838.72
                             1870.93  1929.02  1933.54  1987.30  2038.83
                             2046.43  2059.61  2115.59  2120.93  2170.98
                             2183.25  2195.19  2204.95  2238.66  2244.71
                             2265.13  2368.11  2386.82  2407.76  4395.85
                             4403.98  4493.10  4502.31  4505.20  4518.73
                             4526.01  4551.24  4564.23  4588.39  4590.64
                             4613.25  4630.20  4658.14  5392.22

 Zero-point correction=                           0.261844 (Hartree/Particle)
 Thermal correction to Energy=                    0.276053
 Thermal correction to Enthalpy=                  0.276997
 Thermal correction to Gibbs Free Energy=         0.220923
 Sum of electronic and zero-point Energies=           -730.928800
 Sum of electronic and thermal Energies=              -730.914592
 Sum of electronic and thermal Enthalpies=            -730.913647
 Sum of electronic and thermal Free Energies=         -730.969721

                     E (Thermal)             CV                S
                      KCal/Mol        Cal/Mol-Kelvin    Cal/Mol-Kelvin
 Total                  173.226             58.304            118.017
 Electronic               0.000              0.000              0.000
 Translational            0.889              2.981             42.163
 Rotational               0.889              2.981             33.078
 Vibrational            171.448             52.342             42.776
 Vibration     1          0.594              1.981              5.214
 Vibration     2          0.595              1.979              5.020
 Vibration     3          0.602              1.957              3.678
 Vibration     4          0.618              1.902              2.664
 Vibration     5          0.627              1.874              2.389
 Vibration     6          0.644              1.819              2.004
 Vibration     7          0.669              1.744              1.653
 Vibration     8          0.677              1.720              1.565
 Vibration     9          0.688              1.688              1.460
 Vibration    10          0.693              1.672              1.413
 Vibration    11          0.711              1.622              1.275
 Vibration    12          0.727              1.577              1.169
 Vibration    13          0.740              1.539              1.089
 Vibration    14          0.741              1.536              1.084
 Vibration    15          0.776              1.444              0.919
 Vibration    16          0.785              1.420              0.882
 Vibration    17          0.793              1.401              0.852
 Vibration    18          0.804              1.373              0.813
 Vibration    19          0.834              1.299              0.716
 Vibration    20          0.846              1.271              0.682
 Vibration    21          0.895              1.161              0.565
 Vibration    22          0.911              1.128              0.533
 Vibration    23          0.925              1.098              0.506

                           ! Non-Optimized Parameters !
 Normal termination of Gaussian 16 at Mon Jul 12 13:32:44 2021.

 ----------------------------------------------------------------------
 #p b3lyp/6-31G(d) scrf=(iefpcm,read,solvent=n-octanol) geom=allcheck g
 uess=read
 ----------------------------------------------------------------------

 Structure from the checkpoint file:  "SET_328_BBB212_conf1.geo_135_120.chk"
 -----------------------------------------
 SET_328_BBB212_conf1.geo_135_120 geometry
 -----------------------------------------
 Charge = -1 Multiplicity = 1

 SCF Done:  E(RB3LYP) =  -731.190644356     A.U. after    1 cycles
 Normal termination of Gaussian 16 at Mon Jul 12 13:33:30 2021.

 -----------------------------
 #p B3LYP/6-31G* geom=allcheck
 -----------------------------

 Structure from the checkpoint file:  "SET_328_BBB212_conf1.geo_135_120.chk"
 -----------------------------------------
 SET_328_BBB212_conf1.geo_135_120 geometry
 -----------------------------------------
 Charge = -1 Multiplicity = 1

 SCF Done:  E(RB3LYP) =  -731.091469041     A.U. after   19 cycles
 Normal termination of Gaussian 16 at Mon Jul 12 13:36:11 2021.
 Gaussian 16:  ES64L-G16RevA.03 25-Dec-2016

 --------------------------------------------------------
 #p mp2/aug-cc-pVDZ scf=tight maxdisk=180GB geom=allcheck
 --------------------------------------------------------

 Structure from the checkpoint file:  "SET_328_BBB212_conf1.geo_135_120.chk"
 -----------------------------------------
 SET_328_BBB212_conf1.geo_135_120 geometry
 -----------------------------------------
 Charge = -1 Multiplicity = 1

                         Standard orientation:
 ---------------------------------------------------------------------
 Center     Atomic      Atomic             Coordinates (Angstroms)
 Number     Number       Type             X           Y           Z
 ---------------------------------------------------------------------
      1          6           0       -0.098398    2.374924   -1.179911
      2          1           0        0.756340    3.059422   -1.200607
      3          1           0       -1.010412    2.975966   -1.127248
      4          1           0       -0.115861    1.818767   -2.120856
      5          6           0       -0.045083    1.420239    0.031111
      6          6           0        0.024681    2.290934    1.302357
      7          1           0        0.062197    1.679315    2.208990
      8          1           0       -0.847278    2.947473    1.373077
      9          1           0        0.922772    2.915631    1.277939
     10          6           0        1.224876    0.553115   -0.000082
     11          6           0        2.337594    0.851082   -0.796375
     12          6           0        3.497967    0.075582   -0.763933
     13          6           0        3.572988   -1.028561    0.086948
     14          8           0        4.731664   -1.759302    0.084051
     15          1           0        4.644590   -2.496983    0.708661
     16          6           0        2.475742   -1.345464    0.895409
     17          6           0        1.325272   -0.563864    0.841038
     18          1           0        0.471609   -0.832160    1.453809
     19          1           0        2.517763   -2.205637    1.557708
     20          1           0        4.348286    0.316306   -1.394124
     21          1           0        2.306023    1.703769   -1.462908
     22          6           0       -1.300095    0.539304    0.016523
     23          6           0       -2.309053    0.601895    0.989477
     24          1           0       -2.197962    1.283371    1.828479
     25          6           0       -3.459483   -0.177459    0.920033
     26          1           0       -4.215209   -0.094818    1.697828
     27          6           0       -3.708287   -1.101913   -0.148428
     28          8           0       -4.768446   -1.822591   -0.226572
     29          6           0       -2.656419   -1.148646   -1.130364
     30          1           0       -2.782728   -1.834341   -1.966168
     31          6           0       -1.516981   -0.363173   -1.042979
     32          1           0       -0.757800   -0.448910   -1.819358
 ---------------------------------------------------------------------

 SCF Done:  E(RHF) =  -726.571337094     A.U. after   18 cycles
 E2 =    -0.2501385126D+01 EUMP2 =    -0.72907272221993D+03

 The electronic state is 1-A.
 Alpha  occ. eigenvalues --  -20.52114 -20.30395 -11.21775 -11.14990 -11.14878
 Alpha  occ. eigenvalues --  -11.14562 -11.14501 -11.14089 -11.13870 -11.11996
 Alpha  occ. eigenvalues --  -11.11961 -11.11675 -11.09057 -11.08942 -11.07093
 Alpha  occ. eigenvalues --  -11.05769 -11.05326  -1.32601  -1.11859  -1.06273
 Alpha  occ. eigenvalues --   -1.00432  -0.95110  -0.92773  -0.89424  -0.85288
 Alpha  occ. eigenvalues --   -0.82792  -0.81261  -0.75894  -0.73712  -0.68320
 Alpha  occ. eigenvalues --   -0.66007  -0.64544  -0.61779  -0.57813  -0.55604
 Alpha  occ. eigenvalues --   -0.52879  -0.51671  -0.50734  -0.49596  -0.49180
 Alpha  occ. eigenvalues --   -0.48229  -0.46563  -0.46061  -0.45182  -0.43673
 Alpha  occ. eigenvalues --   -0.43043  -0.41655  -0.40070  -0.39257  -0.37485
 Alpha  occ. eigenvalues --   -0.37278  -0.36807  -0.35100  -0.33196  -0.32437
 Alpha  occ. eigenvalues --   -0.27233  -0.24896  -0.21345  -0.20228  -0.18248
 Alpha  occ. eigenvalues --   -0.09523
 Alpha virt. eigenvalues --    0.09404   0.10333   0.11303   0.12092   0.12303
 Alpha virt. eigenvalues --    0.12959   0.13647   0.13919   0.14674   0.15005
 Alpha virt. eigenvalues --    0.15606   0.16396   0.16860   0.17275   0.17578

 Mulliken charges:
               1
     1  C    1.061661
     2  H   -0.074630
     3  H   -0.204547
     4  H   -0.044853
     5  C   -0.643806
     6  C    0.874498
     7  H   -0.007469
     8  H   -0.045553
     9  H   -0.207749
    10  C    0.984504
    11  C    1.262243
    12  C    0.224029
    13  C    0.675908
    14  O   -0.947052
    15  H    0.171699
    16  C    0.031557
    17  C   -0.098001
    18  H   -0.706781
    19  H   -0.595890
    20  H   -0.525330
    21  H   -0.865661
    22  C    1.023246
    23  C    0.680845
    24  H   -0.903565
    25  C    0.124872
    26  H   -0.548040
    27  C    0.428943
    28  O   -1.148534
    29  C    0.188023
    30  H   -0.549344
    31  C    0.210407
    32  H   -0.825631
 Sum of Mulliken charges =  -1.00000

 Dipole moment (field-independent basis, Debye):
    X=             14.5944    Y=              4.5352    Z=              1.6203  Tot=             15.3685
 Quadrupole moment (field-independent basis, Debye-Ang):
   XX=           -196.5362   YY=           -115.5264   ZZ=           -106.6166
   XY=            -29.1069   XZ=             -1.3652   YZ=             -5.8597

 Normal termination of Gaussian 16 at Mon Jul 12 14:32:35 2021.
