 Gaussian 16, Revision A.03,

 ---------------------------------------------------------------
 #p b3lyp/6-31G(d) opt freq scrf=(iefpcm,read,solvent=n-octanol)
 ---------------------------------------------------------------

 -----------------------------------------
 SET_328_BBB286_conf1.geo_000_150 geometry
 -----------------------------------------
 Symbolic Z-matrix:
 Charge =  1 Multiplicity = 1

 SCF Done:  E(RB3LYP) =  -994.996989050     A.U. after   14 cycles
 SCF Done:  E(RB3LYP) =  -995.043858754     A.U. after   11 cycles
 SCF Done:  E(RB3LYP) =  -995.063925833     A.U. after   12 cycles
 SCF Done:  E(RB3LYP) =  -995.082203258     A.U. after   11 cycles
 SCF Done:  E(RB3LYP) =  -995.084993182     A.U. after   11 cycles
 SCF Done:  E(RB3LYP) =  -995.085623448     A.U. after   11 cycles
 SCF Done:  E(RB3LYP) =  -995.087028742     A.U. after   11 cycles
 SCF Done:  E(RB3LYP) =  -995.087057381     A.U. after   11 cycles
 SCF Done:  E(RB3LYP) =  -995.086639491     A.U. after   11 cycles
 SCF Done:  E(RB3LYP) =  -995.087125495     A.U. after   10 cycles
 SCF Done:  E(RB3LYP) =  -995.087431179     A.U. after    8 cycles
 SCF Done:  E(RB3LYP) =  -995.087434122     A.U. after    7 cycles
 SCF Done:  E(RB3LYP) =  -995.087435257     A.U. after    7 cycles
 SCF Done:  E(RB3LYP) =  -995.087433960     A.U. after    7 cycles
 SCF Done:  E(RB3LYP) =  -995.087435420     A.U. after    7 cycles
 SCF Done:  E(RB3LYP) =  -995.087435388     A.U. after    5 cycles
 Optimization completed.
    -- Stationary point found.
 Normal termination of Gaussian 16 at Mon Jul 12 16:49:01 2021.

 --------------------------------------------------------------------
 #P Geom=AllCheck Guess=TCheck SCRF=Check GenChk RB3LYP/6-31G(d) Freq
 --------------------------------------------------------------------

 Structure from the checkpoint file:  "SET_328_BBB286_conf1.geo_000_150.chk"
 -----------------------------------------
 SET_328_BBB286_conf1.geo_000_150 geometry
 -----------------------------------------
 Charge =  1 Multiplicity = 1

 SCF Done:  E(RB3LYP) =  -995.087435388     A.U. after    1 cycles

  Exact polarizability: 331.260   0.969 275.737 -24.990  -9.754 166.594
 Approx polarizability: 371.359   3.286 370.183 -30.796 -16.460 205.314

                      1                      2                      3
                      A                      A                      A
 Frequencies --     29.4466                36.3163                46.0531
 Red. masses --      4.2891                 4.7904                 4.4831
 Frc consts  --      0.0022                 0.0037                 0.0056
 IR Inten    --      0.3040                 5.4254                 4.8397

                      4                      5                      6
                      A                      A                      A
 Frequencies --     76.5753               105.2000               122.8320
 Red. masses --      5.4842                 1.4069                 3.2503
 Frc consts  --      0.0189                 0.0092                 0.0289
 IR Inten    --      6.1800                 0.2166                 3.4879

                      7                      8                      9
                      A                      A                      A
 Frequencies --    132.6731               144.8505               146.9950
 Red. masses --      3.8490                 3.1978                 2.1368
 Frc consts  --      0.0399                 0.0395                 0.0272
 IR Inten    --      2.1078                 0.6735                 3.2983

                     10                     11                     12
                      A                      A                      A
 Frequencies --    173.2748               213.9846               233.8764
 Red. masses --      4.0630                 4.0735                 1.3834
 Frc consts  --      0.0719                 0.1099                 0.0446
 IR Inten    --      1.3863                28.3851                 0.4048

                     13                     14                     15
                      A                      A                      A
 Frequencies --    242.8475               249.8121               264.8920
 Red. masses --      3.0392                 4.4868                 3.3260
 Frc consts  --      0.1056                 0.1650                 0.1375
 IR Inten    --      0.6130                 2.5882                 1.0203

                     16                     17                     18
                      A                      A                      A
 Frequencies --    310.0875               317.7743               325.0488
 Red. masses --      2.6471                 3.2547                 4.6719
 Frc consts  --      0.1500                 0.1936                 0.2908
 IR Inten    --      0.1509                18.5146                 3.5032

                     19                     20                     21
                      A                      A                      A
 Frequencies --    369.8065               397.5042               405.6202
 Red. masses --      2.6076                 2.9807                 2.5528
 Frc consts  --      0.2101                 0.2775                 0.2475
 IR Inten    --      2.9500                 4.9313                 1.2129

                     22                     23                     24
                      A                      A                      A
 Frequencies --    416.9464               432.5277               442.0821
 Red. masses --      2.7792                 2.7653                 2.7800
 Frc consts  --      0.2847                 0.3048                 0.3201
 IR Inten    --      8.6045                 4.2675                 4.0395

                     25                     26                     27
                      A                      A                      A
 Frequencies --    445.6279               460.9107               546.3023
 Red. masses --      3.0946                 3.2060                 5.8474
 Frc consts  --      0.3621                 0.4013                 1.0282
 IR Inten    --      1.5290                 2.6715                 3.8084

                     28                     29                     30
                      A                      A                      A
 Frequencies --    555.5158               578.9798               580.7258
 Red. masses --      2.8487                 2.2324                 1.9612
 Frc consts  --      0.5180                 0.4409                 0.3897
 IR Inten    --     19.9972                57.3649                78.4251

                     31                     32                     33
                      A                      A                      A
 Frequencies --    589.8001               613.4858               623.7563
 Red. masses --      3.7882                 4.4318                 3.0173
 Frc consts  --      0.7764                 0.9827                 0.6917
 IR Inten    --     16.3744                 8.6267                 7.9889

                     34                     35                     36
                      A                      A                      A
 Frequencies --    641.7978               654.1659               713.7241
 Red. masses --      4.6554                 3.7418                 3.6915
 Frc consts  --      1.1298                 0.9434                 1.1079
 IR Inten    --      2.4361                 2.0846                11.8213

                     37                     38                     39
                      A                      A                      A
 Frequencies --    750.6780               761.5322               765.0749
 Red. masses --      3.7053                 2.9757                 3.6091
 Frc consts  --      1.2302                 1.0167                 1.2447
 IR Inten    --      1.0286                 2.2738                 4.5802

                     40                     41                     42
                      A                      A                      A
 Frequencies --    771.3337               785.9070               794.4752
 Red. masses --      1.5778                 2.9199                 5.0556
 Frc consts  --      0.5531                 1.0626                 1.8801
 IR Inten    --     68.5345                 3.2285                 4.0213

                     43                     44                     45
                      A                      A                      A
 Frequencies --    796.6847               835.5901               844.0125
 Red. masses --      5.6592                 3.3307                 2.7234
 Frc consts  --      2.1163                 1.3702                 1.1430
 IR Inten    --     42.4461                27.8807                 2.0157

                     46                     47                     48
                      A                      A                      A
 Frequencies --    874.2980               878.6777               886.3170
 Red. masses --      1.4647                 1.5675                 2.2495
 Frc consts  --      0.6597                 0.7130                 1.0411
 IR Inten    --      0.2271                 0.4525                 3.8078

                     49                     50                     51
                      A                      A                      A
 Frequencies --    900.9478               933.1378               958.7355
 Red. masses --      3.2818                 2.4867                 2.1495
 Frc consts  --      1.5695                 1.2758                 1.1641
 IR Inten    --     56.6087                 0.5383                 4.5406

                     52                     53                     54
                      A                      A                      A
 Frequencies --    959.7923               963.0674               999.6052
 Red. masses --      1.3299                 2.3277                 1.9801
 Frc consts  --      0.7218                 1.2720                 1.1657
 IR Inten    --      0.7267                20.7418                25.1777

                     55                     56                     57
                      A                      A                      A
 Frequencies --   1000.4243              1017.2600              1029.3909
 Red. masses --      1.2600                 2.9786                 3.1304
 Frc consts  --      0.7430                 1.8160                 1.9544
 IR Inten    --      0.0512                15.4980                 6.2336

                     58                     59                     60
                      A                      A                      A
 Frequencies --   1032.8217              1056.6032              1074.6204
 Red. masses --      2.2528                 2.2383                 3.0675
 Frc consts  --      1.4159                 1.4723                 2.0871
 IR Inten    --     12.0137                 9.9272                19.0111

                     61                     62                     63
                      A                      A                      A
 Frequencies --   1076.2483              1100.2272              1111.8147
 Red. masses --      2.9734                 1.9401                 1.6015
 Frc consts  --      2.0292                 1.3837                 1.1664
 IR Inten    --     44.5931                 1.1006                15.7342

                     64                     65                     66
                      A                      A                      A
 Frequencies --   1140.9944              1145.0427              1155.5146
 Red. masses --      1.9879                 1.8456                 1.2455
 Frc consts  --      1.5248                 1.4257                 0.9798
 IR Inten    --     15.0615                49.9064                 4.1347

                     67                     68                     69
                      A                      A                      A
 Frequencies --   1156.2968              1160.0953              1167.5779
 Red. masses --      1.4189                 1.2936                 1.8335
 Frc consts  --      1.1178                 1.0257                 1.4726
 IR Inten    --      6.1559                 0.3359                15.4784

                     70                     71                     72
                      A                      A                      A
 Frequencies --   1185.9567              1194.3754              1197.1646
 Red. masses --      1.4939                 1.3031                 1.0836
 Frc consts  --      1.2380                 1.0952                 0.9150
 IR Inten    --      9.9951                77.7259                 7.6539

                     73                     74                     75
                      A                      A                      A
 Frequencies --   1206.8238              1245.3818              1266.2042
 Red. masses --      1.3948                 2.0573                 1.7266
 Frc consts  --      1.1968                 1.8800                 1.6310
 IR Inten    --      6.3705               165.2164                 8.0909

                     76                     77                     78
                      A                      A                      A
 Frequencies --   1293.7364              1299.7198              1302.0285
 Red. masses --      1.6052                 1.1949                 1.3563
 Frc consts  --      1.5830                 1.1893                 1.3547
 IR Inten    --      4.2623                10.3574                26.5617

                     79                     80                     81
                      A                      A                      A
 Frequencies --   1311.8944              1341.8921              1346.7894
 Red. masses --      1.3414                 1.4346                 3.6256
 Frc consts  --      1.3602                 1.5220                 3.8746
 IR Inten    --     56.7116                36.8162                55.9604

                     82                     83                     84
                      A                      A                      A
 Frequencies --   1361.0647              1373.3104              1381.8635
 Red. masses --      1.9350                 1.4320                 1.3191
 Frc consts  --      2.1120                 1.5912                 1.4841
 IR Inten    --     23.1238                 3.3443                 6.5976

                     85                     86                     87
                      A                      A                      A
 Frequencies --   1393.8279              1402.7164              1405.6558
 Red. masses --      1.3213                 1.3613                 3.1914
 Frc consts  --      1.5124                 1.5782                 3.7152
 IR Inten    --     67.4462                 3.9535                11.4612

                     88                     89                     90
                      A                      A                      A
 Frequencies --   1409.6964              1411.8988              1418.1576
 Red. masses --      4.0387                 1.4114                 1.4593
 Frc consts  --      4.7287                 1.6577                 1.7292
 IR Inten    --     12.2149                 8.3367                 3.2123

                     91                     92                     93
                      A                      A                      A
 Frequencies --   1423.8002              1425.2338              1443.9893
 Red. masses --      1.3545                 1.3722                 2.8546
 Frc consts  --      1.6178                 1.6422                 3.5069
 IR Inten    --     36.1313                 8.6485                51.8190

                     94                     95                     96
                      A                      A                      A
 Frequencies --   1446.3350              1462.5472              1471.4844
 Red. masses --      2.9883                 1.1867                 1.3366
 Frc consts  --      3.6831                 1.4956                 1.7051
 IR Inten    --     25.8264                 1.9239                33.8541

                     97                     98                     99
                      A                      A                      A
 Frequencies --   1482.0040              1482.4546              1501.2819
 Red. masses --      1.1991                 1.5061                 1.1585
 Frc consts  --      1.5517                 1.9502                 1.5384
 IR Inten    --     42.4244                 3.0154                90.8325

                    100                    101                    102
                      A                      A                      A
 Frequencies --   1507.8301              1508.4667              1515.8420
 Red. masses --      1.0854                 1.0463                 2.3555
 Frc consts  --      1.4539                 1.4028                 3.1889
 IR Inten    --     45.1406                15.1390                38.3943

                    103                    104                    105
                      A                      A                      A
 Frequencies --   1527.1107              1532.3193              1535.8324
 Red. masses --      1.2406                 1.2659                 1.1110
 Frc consts  --      1.7046                 1.7513                 1.5441
 IR Inten    --     80.1970                 2.5921                56.9704

                    106                    107                    108
                      A                      A                      A
 Frequencies --   1541.6234              1547.1026              1554.1454
 Red. masses --      1.1261                 1.6982                 1.1488
 Frc consts  --      1.5768                 2.3948                 1.6349
 IR Inten    --     40.4551                81.5736                 2.6308

                    109                    110                    111
                      A                      A                      A
 Frequencies --   1568.7295              1575.1598              1630.1930
 Red. masses --      1.8112                 1.1930                 6.5025
 Frc consts  --      2.6260                 1.7440                10.1815
 IR Inten    --    460.8880                25.5676                14.0913

                    112                    113                    114
                      A                      A                      A
 Frequencies --   1676.0681              1737.7360              3048.7657
 Red. masses --      6.9355                 9.3649                 1.0730
 Frc consts  --     11.4791                16.6618                 5.8764
 IR Inten    --      5.8098               319.5429                54.0157

                    115                    116                    117
                      A                      A                      A
 Frequencies --   3058.6400              3065.8983              3081.2082
 Red. masses --      1.0698                 1.0838                 1.0352
 Frc consts  --      5.8969                 6.0024                 5.7904
 IR Inten    --     18.4264                16.3861                59.8423

                    118                    119                    120
                      A                      A                      A
 Frequencies --   3092.6321              3096.6749              3100.3394
 Red. masses --      1.0726                 1.0708                 1.0648
 Frc consts  --      6.0443                 6.0500                 6.0304
 IR Inten    --     25.4909                37.8782                17.0853

                    121                    122                    123
                      A                      A                      A
 Frequencies --   3114.6916              3115.6463              3119.1691
 Red. masses --      1.0892                 1.0911                 1.0839
 Frc consts  --      6.2256                 6.2402                 6.2132
 IR Inten    --     44.3652                 1.8675                22.2059

                    124                    125                    126
                      A                      A                      A
 Frequencies --   3123.7576              3126.2272              3136.1048
 Red. masses --      1.0929                 1.0399                 1.0999
 Frc consts  --      6.2832                 5.9882                 6.3737
 IR Inten    --     15.0455                 8.4995                25.9932

                    127                    128                    129
                      A                      A                      A
 Frequencies --   3145.0174              3165.7364              3169.8675
 Red. masses --      1.1065                 1.0941                 1.0937
 Frc consts  --      6.4483                 6.4602                 6.4751
 IR Inten    --     17.4815                 3.0975                 5.1646

                    130                    131                    132
                      A                      A                      A
 Frequencies --   3207.1388              3210.4661              3213.1398
 Red. masses --      1.1016                 1.0872                 1.1088
 Frc consts  --      6.6756                 6.6021                 6.7445
 IR Inten    --      2.5727                 6.6316                 2.1822

                    133                    134                    135
                      A                      A                      A
 Frequencies --   3223.8849              3241.5661              3245.7684
 Red. masses --      1.0911                 1.0947                 1.1056
 Frc consts  --      6.6813                 6.7770                 6.8622
 IR Inten    --     25.4774                17.6551                 4.7890

                    136                    137                    138
                      A                      A                      A
 Frequencies --   3252.0006              3410.1522              3588.3030
 Red. masses --      1.0939                 1.0764                 1.0778
 Frc consts  --      6.8157                 7.3750                 8.1764
 IR Inten    --      6.6908               108.3615                57.0389

 - Thermochemistry -
 -------------------
 Temperature   298.150 Kelvin.  Pressure   1.00000 Atm.
 Atom     1 has atomic number  6 and mass  12.00000

 Molecular mass:   313.20284 amu.
 Principal axes and moments of inertia in atomic units:
                           1         2         3
     Eigenvalues --  2893.56582********************
           X            0.99999  -0.00486  -0.00123
           Y            0.00486   0.99999  -0.00231
           Z            0.00124   0.00230   1.00000
 This molecule is an asymmetric top.
 Rotational symmetry number  1.
 Warning -- assumption of classical behavior for rotation
           may cause significant error
 Rotational temperatures (Kelvin)      0.02993     0.00619     0.00566
 Rotational constants (GHZ):           0.62371     0.12893     0.11798
 Zero-point vibrational energy    1116874.7 (Joules/Mol)
                                  266.93945 (Kcal/Mol)
 Warning -- explicit consideration of  32 degrees of freedom as
           vibrations may cause significant error
 Vibrational temperatures:     42.37    52.25    66.26   110.17   151.36
          (Kelvin)            176.73   190.89   208.41   211.49   249.30
                              307.88   336.50   349.40   359.42   381.12
                              446.15   457.21   467.67   532.07   571.92
                              583.60   599.89   622.31   636.06   641.16
                              663.15   786.01   799.26   833.02   835.53
                              848.59   882.67   897.45   923.40   941.20
                             1026.89  1080.06  1095.68  1100.77  1109.78
                             1130.74  1143.07  1146.25  1202.23  1214.35
                             1257.92  1264.22  1275.21  1296.26  1342.58
                             1379.41  1380.93  1385.64  1438.21  1439.39
                             1463.61  1481.06  1486.00  1520.22  1546.14
                             1548.48  1582.98  1599.65  1641.64  1647.46
                             1662.53  1663.65  1669.12  1679.88  1706.33
                             1718.44  1722.45  1736.35  1791.83  1821.79
                             1861.40  1870.01  1873.33  1887.52  1930.68
                             1937.73  1958.27  1975.89  1988.19  2005.41
                             2018.20  2022.43  2028.24  2031.41  2040.41
                             2048.53  2050.59  2077.58  2080.95  2104.28
                             2117.14  2132.27  2132.92  2160.01  2169.43
                             2170.35  2180.96  2197.17  2204.67  2209.72
                             2218.05  2225.94  2236.07  2257.05  2266.30
                             2345.48  2411.49  2500.21  4386.49  4400.70
                             4411.14  4433.17  4449.61  4455.42  4460.70
                             4481.35  4482.72  4487.79  4494.39  4497.94
                             4512.16  4524.98  4554.79  4560.73  4614.36
                             4619.14  4622.99  4638.45  4663.89  4669.94
                             4678.90  4906.45  5162.77

 Zero-point correction=                           0.425395 (Hartree/Particle)
 Thermal correction to Energy=                    0.445071
 Thermal correction to Enthalpy=                  0.446015
 Thermal correction to Gibbs Free Energy=         0.377247
 Sum of electronic and zero-point Energies=           -994.662040
 Sum of electronic and thermal Energies=              -994.642365
 Sum of electronic and thermal Enthalpies=            -994.641420
 Sum of electronic and thermal Free Energies=         -994.710189

                     E (Thermal)             CV                S
                      KCal/Mol        Cal/Mol-Kelvin    Cal/Mol-Kelvin
 Total                  279.286             79.815            144.735
 Electronic               0.000              0.000              0.000
 Translational            0.889              2.981             43.121
 Rotational               0.889              2.981             34.782
 Vibrational            277.509             73.853             66.832
 Vibration     1          0.593              1.984              5.866
 Vibration     2          0.594              1.982              5.451
 Vibration     3          0.595              1.979              4.980
 Vibration     4          0.599              1.965              3.977
 Vibration     5          0.605              1.945              3.356
 Vibration     6          0.610              1.930              3.055
 Vibration     7          0.613              1.921              2.907
 Vibration     8          0.616              1.908              2.739
 Vibration     9          0.617              1.906              2.711
 Vibration    10          0.627              1.875              2.400
 Vibration    11          0.644              1.820              2.009
 Vibration    12          0.654              1.789              1.849
 Vibration    13          0.659              1.775              1.782
 Vibration    14          0.663              1.763              1.732
 Vibration    15          0.671              1.737              1.629
 Vibration    16          0.699              1.654              1.362
 Vibration    17          0.704              1.640              1.322
 Vibration    18          0.709              1.625              1.285
 Vibration    19          0.742              1.534              1.081
 Vibration    20          0.764              1.475              0.972
 Vibration    21          0.771              1.458              0.942
 Vibration    22          0.780              1.433              0.902
 Vibration    23          0.793              1.399              0.850
 Vibration    24          0.802              1.378              0.820
 Vibration    25          0.805              1.371              0.809
 Vibration    26          0.819              1.337              0.763
 Vibration    27          0.901              1.148              0.552
 Vibration    28          0.911              1.128              0.533
 Vibration    29          0.936              1.077              0.487
 Vibration    30          0.937              1.073              0.484
 Vibration    31          0.947              1.054              0.468
 Vibration    32          0.973              1.003              0.427

 Optimization completed.
    -- Stationary point found.
 Normal termination of Gaussian 16 at Mon Jul 12 18:16:48 2021.

 ----------------------------------------------------------------------
 #p b3lyp/6-31G(d) scrf=(iefpcm,read,solvent=n-octanol) geom=allcheck g
 uess=read
 ----------------------------------------------------------------------

 Structure from the checkpoint file:  "SET_328_BBB286_conf1.geo_000_150.chk"
 -----------------------------------------
 SET_328_BBB286_conf1.geo_000_150 geometry
 -----------------------------------------
 Charge =  1 Multiplicity = 1

 SCF Done:  E(RB3LYP) =  -995.091489347     A.U. after    1 cycles
 Normal termination of Gaussian 16 at Mon Jul 12 18:18:27 2021.

 -----------------------------
 #p B3LYP/6-31G* geom=allcheck
 -----------------------------

 Structure from the checkpoint file:  "SET_328_BBB286_conf1.geo_000_150.chk"
 -----------------------------------------
 SET_328_BBB286_conf1.geo_000_150 geometry
 -----------------------------------------
 Charge =  1 Multiplicity = 1

 SCF Done:  E(RB3LYP) =  -995.001828041     A.U. after   16 cycles
 Normal termination of Gaussian 16 at Mon Jul 12 18:23:15 2021.
 Gaussian 16:  ES64L-G16RevA.03 25-Dec-2016

 --------------------------------------------------------
 #p mp2/aug-cc-pVDZ scf=tight maxdisk=180GB geom=allcheck
 --------------------------------------------------------

 Structure from the checkpoint file:  "SET_328_BBB286_conf1.geo_000_150.chk"
 -----------------------------------------
 SET_328_BBB286_conf1.geo_000_150 geometry
 -----------------------------------------
 Charge =  1 Multiplicity = 1

                         Standard orientation:
 ---------------------------------------------------------------------
 Center     Atomic      Atomic             Coordinates (Angstroms)
 Number     Number       Type             X           Y           Z
 ---------------------------------------------------------------------
      1          6           0       -3.452812    3.008469   -0.352964
      2          1           0       -4.160252    3.166936   -1.170940
      3          1           0       -2.544568    3.576639   -0.542360
      4          1           0       -3.904774    3.343079    0.584737
      5          7           0       -3.078900    1.610035   -0.265081
      6          6           0       -3.893411    0.534726   -0.004036
      7          6           0       -3.065455   -0.613277   -0.040038
      8          6           0       -3.619952   -1.883497    0.194316
      9          6           0       -4.976563   -1.963389    0.456339
     10          6           0       -5.790589   -0.804880    0.489109
     11          6           0       -5.270038    0.458427    0.261142
     12          1           0       -5.896886    1.340808    0.287397
     13          1           0       -6.849566   -0.910340    0.698060
     14          1           0       -5.431574   -2.930550    0.640900
     15          1           0       -2.989193   -2.762446    0.165997
     16          7           0       -1.803034    1.230532   -0.462786
     17          6           0       -1.768079   -0.094190   -0.332992
     18          6           0       -0.503889   -0.841594   -0.492337
     19          8           0       -0.454655   -2.072143   -0.410952
     20          7           0        0.601596   -0.067813   -0.711403
     21          1           0        0.421107    0.901655   -0.944674
     22          6           0        1.880169   -0.666280   -1.086520
     23          6           0        2.487515   -1.553213    0.031340
     24          1           0        1.671200   -2.024656    0.578798
     25          1           0        3.024157   -2.370758   -0.458680
     26          1           0        1.683031   -1.340465   -1.926211
     27          6           0        2.872823    0.407318   -1.578279
     28          1           0        2.338167    1.220619   -2.076948
     29          1           0        3.495051   -0.044608   -2.354324
     30          6           0        3.804422    1.032848   -0.526070
     31          1           0        4.606749    1.549859   -1.056451
     32          6           0        3.182986    2.005163    0.490108
     33          1           0        2.643165    2.773284   -0.070887
     34          1           0        4.000861    2.528544    1.000776
     35          6           0        2.260247    1.344466    1.524449
     36          1           0        1.291676    1.127016    1.076367
     37          1           0        2.079373    2.048336    2.342281
     38          6           0        2.851106    0.048714    2.092235
     39          1           0        2.085810   -0.509285    2.637938
     40          1           0        3.635324    0.281228    2.822995
     41          6           0        3.447718   -0.887030    1.029015
     42          1           0        4.014921   -1.673602    1.531696
     43          7           0        4.497494   -0.087340    0.249053
     44          6           0        5.386024   -0.940852   -0.604203
     45          1           0        5.876207   -1.668827    0.040487
     46          1           0        6.124372   -0.296453   -1.079292
     47          1           0        4.791733   -1.450155   -1.355772
     48          1           0        5.117726    0.351811    0.943569
 ---------------------------------------------------------------------

 SCF Done:  E(RHF) =  -988.767822541     A.U. after   17 cycles
 E2 =    -0.3426693006D+01 EUMP2 =    -0.99219451554693D+03

 The electronic state is 1-A.
 Alpha  occ. eigenvalues --  -20.63076 -15.83953 -15.73445 -15.71296 -15.69471
 Alpha  occ. eigenvalues --  -11.46219 -11.44562 -11.43989 -11.43899 -11.40964
 Alpha  occ. eigenvalues --  -11.38555 -11.37876 -11.37329 -11.36676 -11.36326
 Alpha  occ. eigenvalues --  -11.36274 -11.36204 -11.35666 -11.32395 -11.32183
 Alpha  occ. eigenvalues --  -11.32158 -11.32070 -11.30986  -1.48704  -1.47485
 Alpha  occ. eigenvalues --   -1.47225  -1.34785  -1.24521  -1.23264  -1.22882
 Alpha  occ. eigenvalues --   -1.21837  -1.18918  -1.12255  -1.11599  -1.09824
 Alpha  occ. eigenvalues --   -1.07896  -1.06276  -1.03081  -0.99340  -0.97059
 Alpha  occ. eigenvalues --   -0.95096  -0.92902  -0.90400  -0.89566  -0.87280
 Alpha  occ. eigenvalues --   -0.84015  -0.83416  -0.81293  -0.80862  -0.79794
 Alpha  occ. eigenvalues --   -0.77741  -0.75586  -0.74752  -0.74587  -0.74072
 Alpha  occ. eigenvalues --   -0.73942  -0.73551  -0.72389  -0.71479  -0.71155
 Alpha  occ. eigenvalues --   -0.70404  -0.69971  -0.68395  -0.68199  -0.67678
 Alpha  occ. eigenvalues --   -0.66045  -0.65433  -0.64592  -0.64419  -0.64023
 Alpha  occ. eigenvalues --   -0.61874  -0.61688  -0.59909  -0.59802  -0.59223
 Alpha  occ. eigenvalues --   -0.58652  -0.57517  -0.56759  -0.55595  -0.52525
 Alpha  occ. eigenvalues --   -0.49891  -0.47605  -0.40267  -0.38029
 Alpha virt. eigenvalues --   -0.07711  -0.05731  -0.05460  -0.04823  -0.03523
 Alpha virt. eigenvalues --   -0.03415  -0.03265  -0.02948  -0.02385  -0.01679
 Alpha virt. eigenvalues --   -0.01458  -0.01100  -0.00807  -0.00424  -0.00301

 Mulliken charges:
               1
     1  C    0.849333
     2  H   -0.092414
     3  H   -0.262120
     4  H   -0.099727
     5  N   -0.740120
     6  C   -0.211648
     7  C    0.475312
     8  C    1.352103
     9  C    0.284473
    10  C    0.526959
    11  C    0.988073
    12  H   -0.573116
    13  H   -0.464108
    14  H   -0.485200
    15  H   -0.527420
    16  N   -0.943796
    17  C    0.361201
    18  C    0.196102
    19  O   -0.852390
    20  N    0.287247
    21  H   -0.091080
    22  C   -0.038267
    23  C    0.528563
    24  H   -0.293511
    25  H   -0.012386
    26  H   -0.484305
    27  C    0.633531
    28  H   -0.311090
    29  H   -0.013631
    30  C    0.473767
    31  H   -0.382373
    32  C    0.564453
    33  H   -0.156138
    34  H   -0.093364
    35  C    0.646537
    36  H   -0.192425
    37  H   -0.163196
    38  C    0.576856
    39  H   -0.142532
    40  H   -0.114615
    41  C    0.616378
    42  H   -0.403685
    43  N   -0.972032
    44  C    0.789525
    45  H   -0.083483
    46  H   -0.084211
    47  H   -0.088085
    48  H    0.222055
 Sum of Mulliken charges =   1.00000

 Dipole moment (field-independent basis, Debye):
    X=             14.6346    Y=              3.7516    Z=              0.5484  Tot=             15.1178
 Quadrupole moment (field-independent basis, Debye-Ang):
   XX=            -20.4612   YY=           -122.4862   ZZ=           -130.0298
   XY=             -9.8535   XZ=             -1.1127   YZ=             -2.6337

 Normal termination of Gaussian 16 at Mon Jul 12 21:48:17 2021.
