 Gaussian 16, Revision A.03,

 ---------------------------------------------------------------
 #p b3lyp/6-31G(d) opt freq scrf=(iefpcm,read,solvent=n-octanol)
 ---------------------------------------------------------------

 ----------------------------------------
 SET_328_BBB87_conf1.geo_285_105 geometry
 ----------------------------------------
 Symbolic Z-matrix:
 Charge =  1 Multiplicity = 1

 SCF Done:  E(RB3LYP) =  -703.481400611     A.U. after   13 cycles
 SCF Done:  E(RB3LYP) =  -703.502777673     A.U. after   12 cycles
 SCF Done:  E(RB3LYP) =  -703.501453922     A.U. after   12 cycles
 SCF Done:  E(RB3LYP) =  -703.506390620     A.U. after   11 cycles
 SCF Done:  E(RB3LYP) =  -703.506639415     A.U. after   10 cycles
 SCF Done:  E(RB3LYP) =  -703.506709594     A.U. after   10 cycles
 SCF Done:  E(RB3LYP) =  -703.506772767     A.U. after   10 cycles
 SCF Done:  E(RB3LYP) =  -703.506836759     A.U. after   10 cycles
 SCF Done:  E(RB3LYP) =  -703.506993376     A.U. after   10 cycles
 SCF Done:  E(RB3LYP) =  -703.506933497     A.U. after   11 cycles
 SCF Done:  E(RB3LYP) =  -703.511198574     A.U. after   11 cycles
 SCF Done:  E(RB3LYP) =  -703.511274236     A.U. after   11 cycles
 SCF Done:  E(RB3LYP) =  -703.511367748     A.U. after    9 cycles
 SCF Done:  E(RB3LYP) =  -703.511368987     A.U. after    9 cycles
 SCF Done:  E(RB3LYP) =  -703.511370396     A.U. after    8 cycles
 SCF Done:  E(RB3LYP) =  -703.511373184     A.U. after    7 cycles
 Optimization completed.
    -- Stationary point found.
 Normal termination of Gaussian 16 at Mon Jul 12 13:13:38 2021.

 --------------------------------------------------------------------
 #P Geom=AllCheck Guess=TCheck SCRF=Check GenChk RB3LYP/6-31G(d) Freq
 --------------------------------------------------------------------

 Structure from the checkpoint file:  "SET_328_BBB87_conf1.geo_285_105.chk"
 ----------------------------------------
 SET_328_BBB87_conf1.geo_285_105 geometry
 ----------------------------------------
 Charge =  1 Multiplicity = 1

 SCF Done:  E(RB3LYP) =  -703.511373184     A.U. after    1 cycles

  Exact polarizability: 117.289  -0.719 100.990  -3.244  -1.428  54.860
 Approx polarizability: 145.849  -6.939 141.160  -5.083  -2.125  70.605

                      1                      2                      3
                      A                      A                      A
 Frequencies --    107.4604               192.2478               202.6385
 Red. masses --      4.4696                 3.8532                 2.5647
 Frc consts  --      0.0304                 0.0839                 0.0620
 IR Inten    --     13.7807                27.1630                30.1065

                      4                      5                      6
                      A                      A                      A
 Frequencies --    274.1147               320.7117               451.2246
 Red. masses --      4.4592                 2.7355                 1.2149
 Frc consts  --      0.1974                 0.1658                 0.1457
 IR Inten    --     31.1932                15.6753                 2.3524

                      7                      8                      9
                      A                      A                      A
 Frequencies --    470.8277               508.8993               586.5407
 Red. masses --      1.8446                 4.4761                 5.1349
 Frc consts  --      0.2409                 0.6830                 1.0408
 IR Inten    --      5.6170                 2.9695                 2.6922

                     10                     11                     12
                      A                      A                      A
 Frequencies --    625.4135               709.7584               754.5508
 Red. masses --      4.8191                 3.0825                 1.2765
 Frc consts  --      1.1106                 0.9149                 0.4282
 IR Inten    --     10.6551                 6.4314                44.7599

                     13                     14                     15
                      A                      A                      A
 Frequencies --    766.7301               862.0735               888.3744
 Red. masses --      7.4949                 2.5709                 3.8682
 Frc consts  --      2.5960                 1.1257                 1.7987
 IR Inten    --      8.4829                 3.6462                18.9957

                     16                     17                     18
                      A                      A                      A
 Frequencies --    903.9753               910.2407               973.5532
 Red. masses --      1.3096                 1.6490                 1.5038
 Frc consts  --      0.6305                 0.8050                 0.8398
 IR Inten    --      1.8009                58.8132                 7.6429

                     19                     20                     21
                      A                      A                      A
 Frequencies --   1037.9980              1097.6604              1107.2991
 Red. masses --      3.1580                 1.6416                 1.4050
 Frc consts  --      2.0047                 1.1653                 1.0150
 IR Inten    --      5.1475               128.6910                70.7999

                     22                     23                     24
                      A                      A                      A
 Frequencies --   1150.5128              1171.6743              1217.5599
 Red. masses --      1.3648                 1.9580                 1.8521
 Frc consts  --      1.0644                 1.5837                 1.6177
 IR Inten    --     22.9736                20.8191                 7.0308

                     25                     26                     27
                      A                      A                      A
 Frequencies --   1306.6585              1356.9979              1370.9268
 Red. masses --      1.2842                 1.9639                 1.3762
 Frc consts  --      1.2919                 2.1308                 1.5240
 IR Inten    --     38.3464                 0.2894                32.4347

                     28                     29                     30
                      A                      A                      A
 Frequencies --   1406.8355              1439.2788              1491.1581
 Red. masses --      1.4107                 1.3820                 2.0080
 Frc consts  --      1.6450                 1.6867                 2.6307
 IR Inten    --     20.5582                22.6736                45.2474

                     31                     32                     33
                      A                      A                      A
 Frequencies --   1504.9813              1522.5706              1551.1442
 Red. masses --      1.7159                 1.1060                 1.1862
 Frc consts  --      2.2898                 1.5106                 1.6816
 IR Inten    --      0.6657                11.0276               330.1940

                     34                     35                     36
                      A                      A                      A
 Frequencies --   1570.4160              1670.8320              1693.2190
 Red. masses --      4.6198                 1.0417                 1.0393
 Frc consts  --      6.7128                 1.7134                 1.7556
 IR Inten    --      7.4852                55.6885                69.1977

                     37                     38                     39
                      A                      A                      A
 Frequencies --   3066.7755              3131.5985              3141.7333
 Red. masses --      1.0696                 1.0884                 1.0665
 Frc consts  --      5.9267                 6.2890                 6.2023
 IR Inten    --     10.5044                 1.4230                20.8501

                     40                     41                     42
                      A                      A                      A
 Frequencies --   3199.2444              3243.6747              3265.9725
 Red. masses --      1.1100                 1.0656                 1.0907
 Frc consts  --      6.6937                 6.6059                 6.8546
 IR Inten    --     26.2489               410.5625                 1.3666

                     43                     44                     45
                      A                      A                      A
 Frequencies --   3295.6331              3441.1388              3489.0391
 Red. masses --      1.1000                 1.0620                 1.0947
 Frc consts  --      7.0393                 7.4094                 7.8514
 IR Inten    --      3.7559               237.4218               189.7473

 - Thermochemistry -
 -------------------
 Temperature   298.150 Kelvin.  Pressure   1.00000 Atm.
 Atom     1 has atomic number  7 and mass  14.00307

 Molecular mass:   129.04865 amu.
 Principal axes and moments of inertia in atomic units:
                           1         2         3
     Eigenvalues --   483.465311554.218851969.86411
           X            0.99984   0.01797  -0.00086
           Y           -0.01797   0.99984  -0.00081
           Z            0.00084   0.00082   1.00000
 This molecule is an asymmetric top.
 Rotational symmetry number  1.
 Warning -- assumption of classical behavior for rotation
           may cause significant error
 Rotational temperatures (Kelvin)      0.17915     0.05573     0.04397
 Rotational constants (GHZ):           3.73293     1.16119     0.91618
 Zero-point vibrational energy     385507.8 (Joules/Mol)
                                   92.13857 (Kcal/Mol)
 Warning -- explicit consideration of   9 degrees of freedom as
           vibrations may cause significant error
 Vibrational temperatures:    154.61   276.60   291.55   394.39   461.43
          (Kelvin)            649.21   677.42   732.19   843.90   899.83
                             1021.18  1085.63  1103.15  1240.33  1278.17
                             1300.62  1309.63  1400.73  1493.45  1579.29
                             1593.16  1655.33  1685.78  1751.80  1879.99
                             1952.42  1972.46  2024.12  2070.80  2145.44
                             2165.33  2190.64  2231.75  2259.48  2403.95
                             2436.16  4412.41  4505.67  4520.25  4603.00
                             4666.92  4699.01  4741.68  4951.03  5019.95

 Zero-point correction=                           0.146832 (Hartree/Particle)
 Thermal correction to Energy=                    0.154163
 Thermal correction to Enthalpy=                  0.155107
 Thermal correction to Gibbs Free Energy=         0.114826
 Sum of electronic and zero-point Energies=           -703.364541
 Sum of electronic and thermal Energies=              -703.357210
 Sum of electronic and thermal Enthalpies=            -703.356266
 Sum of electronic and thermal Free Energies=         -703.396547

                     E (Thermal)             CV                S
                      KCal/Mol        Cal/Mol-Kelvin    Cal/Mol-Kelvin
 Total                   96.739             28.143             84.779
 Electronic               0.000              0.000              0.000
 Translational            0.889              2.981             40.478
 Rotational               0.889              2.981             28.783
 Vibrational             94.961             22.182             15.517
 Vibration     1          0.606              1.943              3.314
 Vibration     2          0.634              1.851              2.206
 Vibration     3          0.639              1.836              2.109
 Vibration     4          0.676              1.721              1.570
 Vibration     5          0.706              1.634              1.306
 Vibration     6          0.810              1.358              0.792
 Vibration     7          0.828              1.315              0.735
 Vibration     8          0.864              1.230              0.636
 Vibration     9          0.944              1.061              0.473

 Optimization completed.
    -- Stationary point found.
 Normal termination of Gaussian 16 at Mon Jul 12 13:18:21 2021.

 ----------------------------------------------------------------------
 #p b3lyp/6-31G(d) scrf=(iefpcm,read,solvent=n-octanol) geom=allcheck g
 uess=read
 ----------------------------------------------------------------------

 Structure from the checkpoint file:  "SET_328_BBB87_conf1.geo_285_105.chk"
 ----------------------------------------
 SET_328_BBB87_conf1.geo_285_105 geometry
 ----------------------------------------
 Charge =  1 Multiplicity = 1

 SCF Done:  E(RB3LYP) =  -703.514111134     A.U. after    2 cycles
 Normal termination of Gaussian 16 at Mon Jul 12 13:18:36 2021.

 -----------------------------
 #p B3LYP/6-31G* geom=allcheck
 -----------------------------

 Structure from the checkpoint file:  "SET_328_BBB87_conf1.geo_285_105.chk"
 ----------------------------------------
 SET_328_BBB87_conf1.geo_285_105 geometry
 ----------------------------------------
 Charge =  1 Multiplicity = 1

 SCF Done:  E(RB3LYP) =  -703.410078492     A.U. after   15 cycles
 Normal termination of Gaussian 16 at Mon Jul 12 13:19:07 2021.
 Gaussian 16:  ES64L-G16RevA.03 25-Dec-2016

 --------------------------------------------------------
 #p mp2/aug-cc-pVDZ scf=tight maxdisk=180GB geom=allcheck
 --------------------------------------------------------

 Structure from the checkpoint file:  "SET_328_BBB87_conf1.geo_285_105.chk"
 ----------------------------------------
 SET_328_BBB87_conf1.geo_285_105 geometry
 ----------------------------------------
 Charge =  1 Multiplicity = 1

                         Standard orientation:
 ---------------------------------------------------------------------
 Center     Atomic      Atomic             Coordinates (Angstroms)
 Number     Number       Type             X           Y           Z
 ---------------------------------------------------------------------
      1          7           0       -2.725785    0.800013    0.174633
      2          1           0       -3.049810    0.687159    1.144134
      3          1           0       -3.475933    1.272962   -0.344734
      4          6           0       -2.347065   -0.508281   -0.458415
      5          1           0       -2.140844   -0.298285   -1.507730
      6          1           0       -3.211403   -1.166323   -0.393578
      7          6           0       -1.132783   -1.139796    0.225247
      8          1           0       -0.973589   -2.121924   -0.225778
      9          1           0       -1.351665   -1.321983    1.285111
     10          6           0        0.110115   -0.299340    0.094904
     11          7           0        0.091075    1.008054    0.052241
     12          6           0        1.360083    1.532384   -0.050995
     13          1           0        1.487855    2.605079   -0.099865
     14          6           0        2.369306    0.618194   -0.084002
     15          1           0        3.433187    0.789116   -0.160677
     16         16           0        1.715972   -0.983597    0.010544
     17          1           0       -1.888318    1.416322    0.185859
 ---------------------------------------------------------------------

 SCF Done:  E(RHF) =  -700.831653997     A.U. after   16 cycles
 E2 =    -0.1192680469D+01 EUMP2 =    -0.70202433446660D+03

 The electronic state is 1-A.
 Alpha  occ. eigenvalues --  -92.12980 -15.87453 -15.72721 -11.48007 -11.46754
 Alpha  occ. eigenvalues --  -11.42761 -11.40445 -11.40017  -9.13167  -6.81306
 Alpha  occ. eigenvalues --   -6.81217  -6.81043  -1.49069  -1.42721  -1.24069
 Alpha  occ. eigenvalues --   -1.19953  -1.13689  -1.05264  -0.95504  -0.94497
 Alpha  occ. eigenvalues --   -0.92865  -0.87785  -0.83873  -0.82026  -0.77647
 Alpha  occ. eigenvalues --   -0.74808  -0.73044  -0.69984  -0.68312  -0.67727
 Alpha  occ. eigenvalues --   -0.63334  -0.57865  -0.52532  -0.46706
 Alpha virt. eigenvalues --   -0.10051  -0.07233  -0.06882  -0.05753  -0.03994
 Alpha virt. eigenvalues --   -0.03749  -0.03599  -0.03373  -0.02564  -0.01578
 Alpha virt. eigenvalues --   -0.01406  -0.00066   0.00043   0.01144   0.01718

 Mulliken charges:
               1
     1  N   -0.371030
     2  H    0.232108
     3  H    0.168724
     4  C    0.909196
     5  H   -0.137302
     6  H   -0.099793
     7  C    0.162573
     8  H    0.049368
     9  H    0.029338
    10  C   -0.137200
    11  N   -0.659322
    12  C    0.678268
    13  H   -0.260973
    14  C    0.135896
    15  H   -0.329168
    16  S    0.381487
    17  H    0.247827
 Sum of Mulliken charges =   1.00000

 Dipole moment (field-independent basis, Debye):
    X=             -8.8056    Y=              1.4102    Z=              0.3554  Tot=              8.9249
 Quadrupole moment (field-independent basis, Debye-Ang):
   XX=            -10.7721   YY=            -44.4714   ZZ=            -53.1773
   XY=             -3.1032   XZ=             -1.9872   YZ=              0.2009

 Normal termination of Gaussian 16 at Mon Jul 12 13:22:07 2021.
