 Gaussian 16, Revision A.03,

 ---------------------------------------------------------------
 #p b3lyp/6-31G(d) opt freq scrf=(iefpcm,read,solvent=n-octanol)
 ---------------------------------------------------------------

 -----------------------------------------
 SET_328_BBB299_conf1.geo_000_180 geometry
 -----------------------------------------
 Symbolic Z-matrix:
 Charge = -1 Multiplicity = 1

 SCF Done:  E(RB3LYP) =  -495.539618183     A.U. after   14 cycles
 SCF Done:  E(RB3LYP) =  -495.562202749     A.U. after   12 cycles
 SCF Done:  E(RB3LYP) =  -495.561569273     A.U. after   12 cycles
 SCF Done:  E(RB3LYP) =  -495.565799865     A.U. after   12 cycles
 SCF Done:  E(RB3LYP) =  -495.569108198     A.U. after   12 cycles
 SCF Done:  E(RB3LYP) =  -495.569144474     A.U. after   10 cycles
 SCF Done:  E(RB3LYP) =  -495.569195585     A.U. after   11 cycles
 SCF Done:  E(RB3LYP) =  -495.569245411     A.U. after   10 cycles
 SCF Done:  E(RB3LYP) =  -495.569265436     A.U. after   10 cycles
 SCF Done:  E(RB3LYP) =  -495.569274146     A.U. after   10 cycles
 SCF Done:  E(RB3LYP) =  -495.569260206     A.U. after   10 cycles
 SCF Done:  E(RB3LYP) =  -495.569273380     A.U. after    9 cycles
 SCF Done:  E(RB3LYP) =  -495.569274235     A.U. after    9 cycles
 SCF Done:  E(RB3LYP) =  -495.569272068     A.U. after    9 cycles
 Optimization completed.
    -- Stationary point found.
 Normal termination of Gaussian 16 at Mon Jul 12 12:57:16 2021.

 --------------------------------------------------------------------
 #P Geom=AllCheck Guess=TCheck SCRF=Check GenChk RB3LYP/6-31G(d) Freq
 --------------------------------------------------------------------

 Structure from the checkpoint file:  "SET_328_BBB299_conf1.geo_000_180.chk"
 -----------------------------------------
 SET_328_BBB299_conf1.geo_000_180 geometry
 -----------------------------------------
 Charge = -1 Multiplicity = 1

 SCF Done:  E(RB3LYP) =  -495.569272068     A.U. after    1 cycles

  Exact polarizability: 129.711  -2.160 125.536  -0.003  -0.001  35.064
 Approx polarizability: 161.948  -6.054 175.575  -0.006  -0.001  46.310

                      1                      2                      3
                      A                      A                      A
 Frequencies --     61.1054               143.5716               227.4708
 Red. masses --      9.6445                 5.5342                 8.4235
 Frc consts  --      0.0212                 0.0672                 0.2568
 IR Inten    --      0.0590                 2.6260                 1.0208

                      4                      5                      6
                      A                      A                      A
 Frequencies --    256.9775               360.3793               399.0538
 Red. masses --      4.7776                 8.1560                 9.0447
 Frc consts  --      0.1859                 0.6241                 0.8486
 IR Inten    --      0.0000                14.1305                 1.9761

                      7                      8                      9
                      A                      A                      A
 Frequencies --    436.0867               456.9267               544.5732
 Red. masses --      1.3031                 2.5062                 5.2889
 Frc consts  --      0.1460                 0.3083                 0.9241
 IR Inten    --    102.8486                41.2897                17.6154

                     10                     11                     12
                      A                      A                      A
 Frequencies --    548.8667               572.6934               667.9932
 Red. masses --      3.6224                 8.0305                 6.9706
 Frc consts  --      0.6429                 1.5518                 1.8326
 IR Inten    --      7.2084                 9.4490                26.4894

                     13                     14                     15
                      A                      A                      A
 Frequencies --    696.6018               765.2241               800.9904
 Red. masses --      4.3909                 1.5332                 2.9571
 Frc consts  --      1.2554                 0.5290                 1.1178
 IR Inten    --     15.1244                69.2142                 0.2593

                     16                     17                     18
                      A                      A                      A
 Frequencies --    804.4126               857.8908               860.2928
 Red. masses --      8.6034                 1.5921                 6.8010
 Frc consts  --      3.2800                 0.6904                 2.9656
 IR Inten    --     74.8551                 1.6740                70.9125

                     19                     20                     21
                      A                      A                      A
 Frequencies --    956.7191               985.8916              1070.2211
 Red. masses --      1.3116                 1.2879                 2.0656
 Frc consts  --      0.7073                 0.7375                 1.3939
 IR Inten    --      0.7000                 0.6773                17.2846

                     22                     23                     24
                      A                      A                      A
 Frequencies --   1097.7683              1169.9664              1177.7027
 Red. masses --      3.1483                 1.9580                 1.1292
 Frc consts  --      2.2353                 1.5791                 0.9227
 IR Inten    --     40.1546                22.6193                41.5433

                     25                     26                     27
                      A                      A                      A
 Frequencies --   1205.4274              1284.9616              1329.8920
 Red. masses --      1.3772                 3.3935                 1.8547
 Frc consts  --      1.1791                 3.3012                 1.9326
 IR Inten    --     75.9993                81.9232               141.9757

                     28                     29                     30
                      A                      A                      A
 Frequencies --   1373.7353              1394.8952              1485.9572
 Red. masses --      4.2005                 5.5193                 2.4474
 Frc consts  --      4.6704                 6.3273                 3.1839
 IR Inten    --    279.0340               383.3538                53.3944

                     31                     32                     33
                      A                      A                      A
 Frequencies --   1539.7668              1637.6579              1652.7497
 Red. masses --      2.4128                 6.0586                 6.1433
 Frc consts  --      3.3705                 9.5735                 9.8871
 IR Inten    --     15.3507                38.6540                32.6413

                     34                     35                     36
                      A                      A                      A
 Frequencies --   1687.8040              3171.3257              3195.4371
 Red. masses --     10.8236                 1.0878                 1.0880
 Frc consts  --     18.1662                 6.4457                 6.5452
 IR Inten    --    712.7566                29.4496                24.8356

                     37                     38                     39
                      A                      A                      A
 Frequencies --   3212.1562              3245.6605              3702.2915
 Red. masses --      1.0954                 1.0899                 1.0656
 Frc consts  --      6.6593                 6.7645                 8.6059
 IR Inten    --     46.6997                 9.9214                56.6225

 - Thermochemistry -
 -------------------
 Temperature   298.150 Kelvin.  Pressure   1.00000 Atm.
 Atom     1 has atomic number  8 and mass  15.99491

 Molecular mass:   137.02387 amu.
 Principal axes and moments of inertia in atomic units:
                           1         2         3
     Eigenvalues --   785.068801474.353442259.42223
           X            1.00000  -0.00238  -0.00000
           Y            0.00238   1.00000  -0.00001
           Z            0.00000   0.00001   1.00000
 This molecule is an asymmetric top.
 Rotational symmetry number  1.
 Warning -- assumption of classical behavior for rotation
           may cause significant error
 Rotational temperatures (Kelvin)      0.11033     0.05875     0.03833
 Rotational constants (GHZ):           2.29883     1.22409     0.79876
 Zero-point vibrational energy     281356.3 (Joules/Mol)
                                   67.24577 (Kcal/Mol)
 Warning -- explicit consideration of  11 degrees of freedom as
           vibrations may cause significant error
 Vibrational temperatures:     87.92   206.57   327.28   369.73   518.51
          (Kelvin)            574.15   627.43   657.42   783.52   789.70
                              823.98   961.09  1002.25  1100.99  1152.45
                             1157.37  1234.31  1237.77  1376.51  1418.48
                             1539.81  1579.44  1683.32  1694.45  1734.34
                             1848.77  1913.42  1976.50  2006.94  2137.96
                             2215.38  2356.22  2377.94  2428.37  4562.83
                             4597.52  4621.58  4669.78  5326.77

 Zero-point correction=                           0.107163 (Hartree/Particle)
 Thermal correction to Energy=                    0.115065
 Thermal correction to Enthalpy=                  0.116009
 Thermal correction to Gibbs Free Energy=         0.074052
 Sum of electronic and zero-point Energies=           -495.462109
 Sum of electronic and thermal Energies=              -495.454207
 Sum of electronic and thermal Enthalpies=            -495.453263
 Sum of electronic and thermal Free Energies=         -495.495220

                     E (Thermal)             CV                S
                      KCal/Mol        Cal/Mol-Kelvin    Cal/Mol-Kelvin
 Total                   72.204             30.227             88.306
 Electronic               0.000              0.000              0.000
 Translational            0.889              2.981             40.657
 Rotational               0.889              2.981             29.349
 Vibrational             70.427             24.266             18.301
 Vibration     1          0.597              1.973              4.421
 Vibration     2          0.616              1.910              2.756
 Vibration     3          0.651              1.799              1.899
 Vibration     4          0.667              1.751              1.682
 Vibration     5          0.735              1.554              1.120
 Vibration     6          0.765              1.472              0.966
 Vibration     7          0.797              1.392              0.839
 Vibration     8          0.815              1.346              0.775
 Vibration     9          0.900              1.152              0.556
 Vibration    10          0.904              1.142              0.547
 Vibration    11          0.929              1.090              0.499

 Optimization completed.
    -- Stationary point found.
 Normal termination of Gaussian 16 at Mon Jul 12 13:02:27 2021.

 ----------------------------------------------------------------------
 #p b3lyp/6-31G(d) scrf=(iefpcm,read,solvent=n-octanol) geom=allcheck g
 uess=read
 ----------------------------------------------------------------------

 Structure from the checkpoint file:  "SET_328_BBB299_conf1.geo_000_180.chk"
 -----------------------------------------
 SET_328_BBB299_conf1.geo_000_180 geometry
 -----------------------------------------
 Charge = -1 Multiplicity = 1

 SCF Done:  E(RB3LYP) =  -495.569272068     A.U. after    1 cycles
 Normal termination of Gaussian 16 at Mon Jul 12 13:02:38 2021.

 -----------------------------
 #p B3LYP/6-31G* geom=allcheck
 -----------------------------

 Structure from the checkpoint file:  "SET_328_BBB299_conf1.geo_000_180.chk"
 -----------------------------------------
 SET_328_BBB299_conf1.geo_000_180 geometry
 -----------------------------------------
 Charge = -1 Multiplicity = 1

 SCF Done:  E(RB3LYP) =  -495.455138575     A.U. after   16 cycles
 Normal termination of Gaussian 16 at Mon Jul 12 13:03:11 2021.
 Gaussian 16:  ES64L-G16RevA.03 25-Dec-2016

 --------------------------------------------------------
 #p mp2/aug-cc-pVDZ scf=tight maxdisk=180GB geom=allcheck
 --------------------------------------------------------

 Structure from the checkpoint file:  "SET_328_BBB299_conf1.geo_000_180.chk"
 -----------------------------------------
 SET_328_BBB299_conf1.geo_000_180 geometry
 -----------------------------------------
 Charge = -1 Multiplicity = 1

                         Standard orientation:
 ---------------------------------------------------------------------
 Center     Atomic      Atomic             Coordinates (Angstroms)
 Number     Number       Type             X           Y           Z
 ---------------------------------------------------------------------
      1          8           0       -2.464125    0.791760    0.000066
      2          6           0       -1.816209   -0.287007    0.000019
      3          8           0       -2.311149   -1.451248   -0.000206
      4          6           0       -0.281415   -0.219056    0.000143
      5          6           0        0.491777    0.963741    0.000077
      6          8           0       -0.112485    2.189239    0.000005
      7          1           0        0.585115    2.867852   -0.000346
      8          6           0        1.894902    0.886777   -0.000094
      9          1           0        2.473995    1.807687    0.000098
     10          6           0        2.548151   -0.342048   -0.000091
     11          1           0        3.633608   -0.372017   -0.000296
     12          6           0        1.802541   -1.521003    0.000061
     13          1           0        2.295483   -2.487856    0.000110
     14          6           0        0.413357   -1.436143    0.000123
     15          1           0       -0.204754   -2.325245    0.000087
 ---------------------------------------------------------------------

 SCF Done:  E(RHF) =  -492.673852453     A.U. after   16 cycles
 E2 =    -0.1541598853D+01 EUMP2 =    -0.49421545130661D+03

 The electronic state is 1-A.
 Alpha  occ. eigenvalues --  -20.47013 -20.30765 -20.30621 -11.18643 -11.15967
 Alpha  occ. eigenvalues --  -11.13275 -11.12017 -11.11151 -11.10803 -11.09751
 Alpha  occ. eigenvalues --   -1.27691  -1.17754  -1.07260  -1.02115  -0.89467
 Alpha  occ. eigenvalues --   -0.87922  -0.71877  -0.70628  -0.60448  -0.59058
 Alpha  occ. eigenvalues --   -0.53337  -0.51339  -0.46939  -0.46355  -0.45899
 Alpha  occ. eigenvalues --   -0.43134  -0.40287  -0.38902  -0.37352  -0.36748
 Alpha  occ. eigenvalues --   -0.34610  -0.22069  -0.21004  -0.20938  -0.19411
 Alpha  occ. eigenvalues --   -0.18626
 Alpha virt. eigenvalues --    0.10763   0.11530   0.12634   0.14807   0.16021
 Alpha virt. eigenvalues --    0.20825   0.21122   0.21443   0.21795   0.22443
 Alpha virt. eigenvalues --    0.22574   0.22797   0.23301   0.24146   0.24664

 Mulliken charges:
               1
     1  O   -0.936546
     2  C    0.856304
     3  O   -0.984512
     4  C    0.580848
     5  C    0.992160
     6  O   -0.936543
     7  H    0.177136
     8  C    0.697977
     9  H   -0.671061
    10  C    0.252775
    11  H   -0.457231
    12  C    0.246549
    13  H   -0.455995
    14  C    0.277003
    15  H   -0.638865
 Sum of Mulliken charges =  -1.00000

 Dipole moment (field-independent basis, Debye):
    X=             11.2499    Y=              1.9246    Z=             -0.0000  Tot=             11.4134
 Quadrupole moment (field-independent basis, Debye-Ang):
   XX=            -91.7942   YY=            -64.1046   ZZ=            -63.4357
   XY=              0.8542   XZ=             -0.0017   YZ=             -0.0028

 Normal termination of Gaussian 16 at Mon Jul 12 13:06:25 2021.
