 Gaussian 16, Revision A.03,

 ---------------------------------------------------------------
 #p b3lyp/6-31G(d) opt freq scrf=(iefpcm,read,solvent=n-octanol)
 ---------------------------------------------------------------

 -----------------------------------------
 SET_328_BBB285_conf1.geo_120_300 geometry
 -----------------------------------------
 Symbolic Z-matrix:
 Charge = -1 Multiplicity = 1

 SCF Done:  E(RB3LYP) =  -906.573573297     A.U. after   15 cycles
 SCF Done:  E(RB3LYP) =  -906.615943699     A.U. after   11 cycles
 SCF Done:  E(RB3LYP) =  -906.633052061     A.U. after   12 cycles
 SCF Done:  E(RB3LYP) =  -906.639072919     A.U. after   11 cycles
 SCF Done:  E(RB3LYP) =  -906.640398465     A.U. after   12 cycles
 SCF Done:  E(RB3LYP) =  -906.644396838     A.U. after   11 cycles
 SCF Done:  E(RB3LYP) =  -906.645203593     A.U. after   12 cycles
 SCF Done:  E(RB3LYP) =  -906.646538468     A.U. after   11 cycles
 SCF Done:  E(RB3LYP) =  -906.648974704     A.U. after   11 cycles
 SCF Done:  E(RB3LYP) =  -906.649621451     A.U. after   14 cycles
 SCF Done:  E(RB3LYP) =  -906.652457893     A.U. after   10 cycles
 SCF Done:  E(RB3LYP) =  -906.652457900     A.U. after    7 cycles
 SCF Done:  E(RB3LYP) =  -906.652475286     A.U. after    9 cycles
 SCF Done:  E(RB3LYP) =  -906.652476508     A.U. after    8 cycles
 SCF Done:  E(RB3LYP) =  -906.652457987     A.U. after   10 cycles
 SCF Done:  E(RB3LYP) =  -906.652457875     A.U. after    7 cycles
 Optimization completed on the basis of negligible forces.
    -- Stationary point found.
 Normal termination of Gaussian 16 at Mon Jul 12 15:36:20 2021.

 --------------------------------------------------------------------
 #P Geom=AllCheck Guess=TCheck SCRF=Check GenChk RB3LYP/6-31G(d) Freq
 --------------------------------------------------------------------

 Structure from the checkpoint file:  "SET_328_BBB285_conf1.geo_120_300.chk"
 -----------------------------------------
 SET_328_BBB285_conf1.geo_120_300 geometry
 -----------------------------------------
 Charge = -1 Multiplicity = 1

 SCF Done:  E(RB3LYP) =  -906.652457875     A.U. after    1 cycles

  Exact polarizability: 183.983   7.325 106.891   0.414   3.900 149.744
 Approx polarizability: 204.798  11.352 128.219   9.695   4.679 212.851

                      1                      2                      3
                      A                      A                      A
 Frequencies --     31.2832                38.1628                50.8567
 Red. masses --      6.5226                 6.7313                 7.1175
 Frc consts  --      0.0038                 0.0058                 0.0108
 IR Inten    --      4.6193                 5.4742                 3.6685

                      4                      5                      6
                      A                      A                      A
 Frequencies --     82.6321               102.7359               125.9161
 Red. masses --      6.6359                 6.6595                 6.4935
 Frc consts  --      0.0267                 0.0414                 0.0607
 IR Inten    --      1.3443                 2.0142                 2.8537

                      7                      8                      9
                      A                      A                      A
 Frequencies --    150.1940               201.9616               216.4395
 Red. masses --      7.2527                 6.5855                 6.2848
 Frc consts  --      0.0964                 0.1583                 0.1735
 IR Inten    --      2.2930                 8.3520                 8.4393

                     10                     11                     12
                      A                      A                      A
 Frequencies --    246.7297               261.7259               289.1327
 Red. masses --      3.8757                 4.8055                 4.1343
 Frc consts  --      0.1390                 0.1939                 0.2036
 IR Inten    --      5.9983                 8.4038                30.3179

                     13                     14                     15
                      A                      A                      A
 Frequencies --    305.7651               346.9251               371.8084
 Red. masses --      1.4421                 5.1322                 5.3948
 Frc consts  --      0.0794                 0.3639                 0.4394
 IR Inten    --    111.7143                 1.2447                10.8268

                     16                     17                     18
                      A                      A                      A
 Frequencies --    378.6749               430.5614               470.0840
 Red. masses --      4.2515                 6.0230                 4.8453
 Frc consts  --      0.3592                 0.6579                 0.6308
 IR Inten    --     30.5827                11.8619                26.9571

                     19                     20                     21
                      A                      A                      A
 Frequencies --    530.3775               536.8742               564.2989
 Red. masses --      2.9700                 1.3791                 3.4521
 Frc consts  --      0.4922                 0.2342                 0.6477
 IR Inten    --     13.1638                69.5329                13.6759

                     22                     23                     24
                      A                      A                      A
 Frequencies --    609.4680               627.2245               678.1415
 Red. masses --      1.2041                 4.0685                 9.0478
 Frc consts  --      0.2635                 0.9430                 2.4515
 IR Inten    --    258.7325                42.3533                 1.9162

                     25                     26                     27
                      A                      A                      A
 Frequencies --    693.3459               735.8082               743.5065
 Red. masses --      5.2464                 1.3853                 5.6356
 Frc consts  --      1.4860                 0.4419                 1.8355
 IR Inten    --      0.6882                59.8422                12.3047

                     28                     29                     30
                      A                      A                      A
 Frequencies --    758.0532               783.3795               812.7746
 Red. masses --      7.6352                 4.3616                 5.9264
 Frc consts  --      2.5850                 1.5770                 2.3066
 IR Inten    --     53.7090                 1.4533               190.8915

                     31                     32                     33
                      A                      A                      A
 Frequencies --    830.9736               869.8653               889.2038
 Red. masses --      4.1908                 4.8610                 2.8652
 Frc consts  --      1.7050                 2.1671                 1.3348
 IR Inten    --     17.6005                70.7125                27.9373

                     34                     35                     36
                      A                      A                      A
 Frequencies --    893.3668               931.3030               975.4066
 Red. masses --      1.3834                 2.4078                 2.4190
 Frc consts  --      0.6505                 1.2304                 1.3560
 IR Inten    --     12.6062                 5.5876                23.1179

                     37                     38                     39
                      A                      A                      A
 Frequencies --    997.7741              1028.7698              1049.5334
 Red. masses --      4.8713                 3.9715                 2.8979
 Frc consts  --      2.8574                 2.4765                 1.8807
 IR Inten    --     51.8614                91.9539                28.2761

                     40                     41                     42
                      A                      A                      A
 Frequencies --   1060.2644              1088.5602              1115.5345
 Red. masses --      2.8286                 6.4667                 5.4439
 Frc consts  --      1.8735                 4.5148                 3.9914
 IR Inten    --     39.5653               215.9385               192.1314

                     43                     44                     45
                      A                      A                      A
 Frequencies --   1140.6666              1153.9390              1157.9161
 Red. masses --      3.1578                 2.4592                 2.0576
 Frc consts  --      2.4208                 1.9294                 1.6254
 IR Inten    --    128.7453                18.7908                 4.9103

                     46                     47                     48
                      A                      A                      A
 Frequencies --   1214.5201              1223.5090              1228.0319
 Red. masses --      1.6587                 1.2242                 1.7030
 Frc consts  --      1.4415                 1.0797                 1.5131
 IR Inten    --    122.7506                34.2511                16.6964

                     49                     50                     51
                      A                      A                      A
 Frequencies --   1270.6140              1280.8092              1315.2384
 Red. masses --      1.1554                 1.5187                 6.7133
 Frc consts  --      1.0990                 1.4679                 6.8422
 IR Inten    --     33.2377                69.3570                79.9848

                     52                     53                     54
                      A                      A                      A
 Frequencies --   1326.4904              1341.1052              1355.3185
 Red. masses --      1.4813                 1.3747                 1.4905
 Frc consts  --      1.5357                 1.4567                 1.6131
 IR Inten    --     10.6394                 4.2040                79.2849

                     55                     56                     57
                      A                      A                      A
 Frequencies --   1368.0349              1376.8543              1385.9573
 Red. masses --      3.7222                 1.3901                 1.4463
 Frc consts  --      4.1044                 1.5526                 1.6368
 IR Inten    --    318.6805                 4.8765                34.5530

                     58                     59                     60
                      A                      A                      A
 Frequencies --   1417.2827              1418.8127              1426.5561
 Red. masses --      5.7565                 1.3400                 1.3388
 Frc consts  --      6.8127                 1.5893                 1.6052
 IR Inten    --     49.4446                27.2022                45.2087

                     61                     62                     63
                      A                      A                      A
 Frequencies --   1438.0956              1452.9765              1456.9378
 Red. masses --      1.4377                 4.5449                 1.6821
 Frc consts  --      1.7518                 5.6531                 2.1037
 IR Inten    --     49.8034               119.9454                58.7938

                     64                     65                     66
                      A                      A                      A
 Frequencies --   1504.9172              1535.0912              1541.8721
 Red. masses --      1.2279                 1.0830                 5.7208
 Frc consts  --      1.6385                 1.5036                 8.0131
 IR Inten    --    191.4663                 2.6237                16.5709

                     67                     68                     69
                      A                      A                      A
 Frequencies --   1686.1796              2993.3949              3025.7105
 Red. masses --      8.1615                 1.0723                 1.0840
 Frc consts  --     13.6718                 5.6611                 5.8471
 IR Inten    --    492.4891                88.2851                42.9872

                     70                     71                     72
                      A                      A                      A
 Frequencies --   3064.8761              3103.9044              3145.8579
 Red. masses --      1.0872                 1.0904                 1.0879
 Frc consts  --      6.0169                 6.1892                 6.3432
 IR Inten    --     78.5168                59.2220                 6.9278

                     73                     74                     75
                      A                      A                      A
 Frequencies --   3154.9338              3316.1690              3419.5537
 Red. masses --      1.0868                 1.0970                 1.0725
 Frc consts  --      6.3733                 7.1075                 7.3888
 IR Inten    --     13.1895                 1.8125                 9.0930

                     76                     77                     78
                      A                      A                      A
 Frequencies --   3565.0126              3620.4110              3738.0887
 Red. masses --      1.0650                 1.0648                 1.0668
 Frc consts  --      7.9750                 8.2229                 8.7830
 IR Inten    --    300.8676               176.2139               107.7406

 - Thermochemistry -
 -------------------
 Temperature   298.150 Kelvin.  Pressure   1.00000 Atm.
 Atom     1 has atomic number  7 and mass  14.00307

 Molecular mass:   243.07294 amu.
 Principal axes and moments of inertia in atomic units:
                           1         2         3
     Eigenvalues --  1638.310968058.198948554.35666
           X            0.99999  -0.00182  -0.00449
           Y            0.00192   0.99977   0.02136
           Z            0.00445  -0.02137   0.99976
 This molecule is an asymmetric top.
 Rotational symmetry number  1.
 Warning -- assumption of classical behavior for rotation
           may cause significant error
 Rotational temperatures (Kelvin)      0.05287     0.01075     0.01013
 Rotational constants (GHZ):           1.10159     0.22396     0.21097
 Zero-point vibrational energy     562669.7 (Joules/Mol)
                                  134.48130 (Kcal/Mol)
 Warning -- explicit consideration of  22 degrees of freedom as
           vibrations may cause significant error
 Vibrational temperatures:     45.01    54.91    73.17   118.89   147.81
          (Kelvin)            181.17   216.10   290.58   311.41   354.99
                              376.57   416.00   439.93   499.15   534.95
                              544.83   619.48   676.35   763.09   772.44
                              811.90   876.89   902.44   975.69   997.57
                             1058.66  1069.74  1090.67  1127.11  1169.40
                             1195.59  1251.54  1279.37  1285.36  1339.94
                             1403.39  1435.57  1480.17  1510.04  1525.48
                             1566.20  1605.01  1641.16  1660.26  1665.98
                             1747.42  1760.36  1766.86  1828.13  1842.80
                             1892.33  1908.52  1929.55  1950.00  1968.30
                             1980.99  1994.08  2039.15  2041.35  2052.50
                             2069.10  2090.51  2096.21  2165.24  2208.65
                             2218.41  2426.04  4306.83  4353.32  4409.67
                             4465.83  4526.19  4539.25  4771.23  4919.98
                             5129.26  5208.96  5378.28

 Zero-point correction=                           0.214310 (Hartree/Particle)
 Thermal correction to Energy=                    0.229323
 Thermal correction to Enthalpy=                  0.230267
 Thermal correction to Gibbs Free Energy=         0.170508
 Sum of electronic and zero-point Energies=           -906.438148
 Sum of electronic and thermal Energies=              -906.423135
 Sum of electronic and thermal Enthalpies=            -906.422191
 Sum of electronic and thermal Free Energies=         -906.481950

                     E (Thermal)             CV                S
                      KCal/Mol        Cal/Mol-Kelvin    Cal/Mol-Kelvin
 Total                  143.902             56.459            125.772
 Electronic               0.000              0.000              0.000
 Translational            0.889              2.981             42.366
 Rotational               0.889              2.981             33.090
 Vibrational            142.125             50.497             50.317
 Vibration     1          0.594              1.983              5.746
 Vibration     2          0.594              1.982              5.352
 Vibration     3          0.595              1.977              4.784
 Vibration     4          0.600              1.961              3.827
 Vibration     5          0.605              1.947              3.402
 Vibration     6          0.611              1.927              3.007
 Vibration     7          0.618              1.902              2.670
 Vibration     8          0.639              1.837              2.115
 Vibration     9          0.645              1.816              1.989
 Vibration    10          0.661              1.768              1.754
 Vibration    11          0.669              1.743              1.650
 Vibration    12          0.686              1.694              1.479
 Vibration    13          0.696              1.663              1.385
 Vibration    14          0.725              1.582              1.180
 Vibration    15          0.744              1.530              1.072
 Vibration    16          0.749              1.516              1.044
 Vibration    17          0.792              1.404              0.857
 Vibration    18          0.827              1.316              0.737
 Vibration    19          0.885              1.183              0.586
 Vibration    20          0.892              1.168              0.572
 Vibration    21          0.920              1.109              0.515
 Vibration    22          0.968              1.012              0.434

 Optimization completed.
    -- Stationary point found.
 Normal termination of Gaussian 16 at Mon Jul 12 15:59:55 2021.

 ----------------------------------------------------------------------
 #p b3lyp/6-31G(d) scrf=(iefpcm,read,solvent=n-octanol) geom=allcheck g
 uess=read
 ----------------------------------------------------------------------

 Structure from the checkpoint file:  "SET_328_BBB285_conf1.geo_120_300.chk"
 -----------------------------------------
 SET_328_BBB285_conf1.geo_120_300 geometry
 -----------------------------------------
 Charge = -1 Multiplicity = 1

 SCF Done:  E(RB3LYP) =  -906.652457875     A.U. after    2 cycles
 Normal termination of Gaussian 16 at Mon Jul 12 16:00:33 2021.

 -----------------------------
 #p B3LYP/6-31G* geom=allcheck
 -----------------------------

 Structure from the checkpoint file:  "SET_328_BBB285_conf1.geo_120_300.chk"
 -----------------------------------------
 SET_328_BBB285_conf1.geo_120_300 geometry
 -----------------------------------------
 Charge = -1 Multiplicity = 1

 SCF Done:  E(RB3LYP) =  -906.539561698     A.U. after   17 cycles
 Normal termination of Gaussian 16 at Mon Jul 12 16:02:35 2021.
 Gaussian 16:  ES64L-G16RevA.03 25-Dec-2016

 --------------------------------------------------------
 #p mp2/aug-cc-pVDZ scf=tight maxdisk=180GB geom=allcheck
 --------------------------------------------------------

 Structure from the checkpoint file:  "SET_328_BBB285_conf1.geo_120_300.chk"
 -----------------------------------------
 SET_328_BBB285_conf1.geo_120_300 geometry
 -----------------------------------------
 Charge = -1 Multiplicity = 1

                         Standard orientation:
 ---------------------------------------------------------------------
 Center     Atomic      Atomic             Coordinates (Angstroms)
 Number     Number       Type             X           Y           Z
 ---------------------------------------------------------------------
      1          7           0       -4.673517   -0.358566    1.583612
      2          1           0       -3.818676   -0.210320    2.128088
      3          6           0       -4.347275   -0.315611    0.302553
      4          8           0       -5.123726   -0.455275   -0.683309
      5          6           0       -2.899693   -0.073501   -0.083616
      6          6           0       -2.376564    0.017201   -1.391262
      7          7           0       -1.067779    0.253739   -1.336228
      8          1           0       -2.897479   -0.071109   -2.330640
      9          7           0       -1.883713    0.106548    0.768546
     10          7           0       -0.821828    0.312481   -0.018894
     11          6           0        0.528251    0.404078    0.522042
     12          1           0        0.406490    0.719914    1.558284
     13          8           0        1.190173   -0.840567    0.496275
     14          6           0        2.113481   -0.863264   -0.605879
     15          6           0        3.157680   -1.949831   -0.367689
     16          8           0        3.862792   -1.814183    0.847875
     17          1           0        4.065460   -0.861328    0.919943
     18          1           0        3.830879   -1.953236   -1.241094
     19          1           0        2.655288   -2.921467   -0.344503
     20          1           0        1.574719   -1.096387   -1.535840
     21          6           0        2.636005    0.576750   -0.699321
     22          8           0        3.696764    0.815257    0.222281
     23          1           0        3.412462    1.592957    0.747375
     24          1           0        2.975329    0.817639   -1.713737
     25          6           0        1.390211    1.405306   -0.282876
     26          1           0        0.839111    1.747544   -1.158579
     27          8           0        1.743372    2.489538    0.568097
     28          1           0        1.916710    3.271452    0.017996
 ---------------------------------------------------------------------

 SCF Done:  E(RHF) =  -901.536515107     A.U. after   16 cycles
 E2 =    -0.2819682574D+01 EUMP2 =    -0.90435619768135D+03

 The electronic state is 1-A.
 Alpha  occ. eigenvalues --  -20.54213 -20.51758 -20.49825 -20.47526 -20.31481
 Alpha  occ. eigenvalues --  -15.56589 -15.50917 -15.50097 -15.32964 -11.25769
 Alpha  occ. eigenvalues --  -11.24106 -11.23559 -11.22161 -11.21032 -11.15034
 Alpha  occ. eigenvalues --  -11.14991 -11.13709  -1.35802  -1.33595  -1.31403
 Alpha  occ. eigenvalues --   -1.29949  -1.27183  -1.15108  -1.07546  -1.03010
 Alpha  occ. eigenvalues --   -0.98317  -0.95297  -0.92606  -0.83889  -0.77737
 Alpha  occ. eigenvalues --   -0.74237  -0.72622  -0.69496  -0.66774  -0.66246
 Alpha  occ. eigenvalues --   -0.62905  -0.61544  -0.59471  -0.58715  -0.56231
 Alpha  occ. eigenvalues --   -0.55202  -0.53876  -0.52199  -0.51110  -0.49475
 Alpha  occ. eigenvalues --   -0.49259  -0.48892  -0.47906  -0.46983  -0.44777
 Alpha  occ. eigenvalues --   -0.42218  -0.39734  -0.39520  -0.38277  -0.37533
 Alpha  occ. eigenvalues --   -0.36257  -0.35975  -0.35602  -0.35406  -0.28282
 Alpha  occ. eigenvalues --   -0.24350  -0.23583  -0.21258  -0.15360
 Alpha virt. eigenvalues --    0.08278   0.09713   0.10797   0.11601   0.12632
 Alpha virt. eigenvalues --    0.13130   0.13215   0.13574   0.14999   0.15796
 Alpha virt. eigenvalues --    0.17070   0.17768   0.18520   0.19477   0.19869

 Mulliken charges:
               1
     1  N   -0.699042
     2  H   -0.009312
     3  C    0.950523
     4  O   -1.008016
     5  C    0.906562
     6  C    0.408277
     7  N   -0.402445
     8  H   -0.385840
     9  N   -0.984270
    10  N   -0.372686
    11  C    1.810091
    12  H   -0.321947
    13  O   -1.167267
    14  C   -0.020576
    15  C    1.335635
    16  O   -0.737033
    17  H    0.264362
    18  H   -0.086629
    19  H   -0.069802
    20  H   -0.199995
    21  C    0.987897
    22  O   -0.980514
    23  H    0.258997
    24  H   -0.181766
    25  C    0.629459
    26  H   -0.245722
    27  O   -0.839818
    28  H    0.160879
 Sum of Mulliken charges =  -1.00000

 Dipole moment (field-independent basis, Debye):
    X=             20.3318    Y=              5.8911    Z=             -5.1392  Tot=             21.7830
 Quadrupole moment (field-independent basis, Debye-Ang):
   XX=           -235.0532   YY=           -100.0494   ZZ=           -110.8222
   XY=              1.7732   XZ=              2.9547   YZ=              3.7197

 Normal termination of Gaussian 16 at Mon Jul 12 16:36:33 2021.
