 Gaussian 16, Revision A.03,

 ---------------------------------------------------------------
 #p b3lyp/6-31G(d) opt freq scrf=(iefpcm,read,solvent=n-octanol)
 ---------------------------------------------------------------

 -----------------------------------------
 SET_328_BBB212_conf1.geo_300_135 geometry
 -----------------------------------------
 Symbolic Z-matrix:
 Charge = -1 Multiplicity = 1

 SCF Done:  E(RB3LYP) =  -731.144676585     A.U. after   13 cycles
 SCF Done:  E(RB3LYP) =  -731.175488318     A.U. after   12 cycles
 SCF Done:  E(RB3LYP) =  -731.189089545     A.U. after   12 cycles
 SCF Done:  E(RB3LYP) =  -731.190151556     A.U. after   11 cycles
 SCF Done:  E(RB3LYP) =  -731.190603551     A.U. after   10 cycles
 SCF Done:  E(RB3LYP) =  -731.190472541     A.U. after   11 cycles
 SCF Done:  E(RB3LYP) =  -731.190371185     A.U. after   10 cycles
 SCF Done:  E(RB3LYP) =  -731.190687397     A.U. after   11 cycles
 SCF Done:  E(RB3LYP) =  -731.190365137     A.U. after   11 cycles
 SCF Done:  E(RB3LYP) =  -731.190630642     A.U. after   11 cycles
 SCF Done:  E(RB3LYP) =  -731.190458528     A.U. after    9 cycles
 SCF Done:  E(RB3LYP) =  -731.190460738     A.U. after    8 cycles
 SCF Done:  E(RB3LYP) =  -731.190445204     A.U. after    8 cycles
 SCF Done:  E(RB3LYP) =  -731.190460318     A.U. after    8 cycles
 SCF Done:  E(RB3LYP) =  -731.190457108     A.U. after    7 cycles
 SCF Done:  E(RB3LYP) =  -731.190454639     A.U. after    7 cycles
 Optimization completed.
    -- Stationary point found.
 Normal termination of Gaussian 16 at Mon Jul 12 13:27:19 2021.

 --------------------------------------------------------------------
 #P Geom=AllCheck Guess=TCheck SCRF=Check GenChk RB3LYP/6-31G(d) Freq
 --------------------------------------------------------------------

 Structure from the checkpoint file:  "SET_328_BBB212_conf1.geo_300_135.chk"
 -----------------------------------------
 SET_328_BBB212_conf1.geo_300_135 geometry
 -----------------------------------------
 Charge = -1 Multiplicity = 1

 SCF Done:  E(RB3LYP) =  -731.190454639     A.U. after    1 cycles

  Exact polarizability: 265.574 -18.205 185.274 -26.670   4.008 163.659
 Approx polarizability: 317.157 -28.924 239.174 -40.103   6.397 219.093

                      1                      2                      3
                      A                      A                      A
 Frequencies --     28.0578                32.6212                48.5545
 Red. masses --      3.9094                 4.4368                 5.5151
 Frc consts  --      0.0018                 0.0028                 0.0077
 IR Inten    --      4.1632                 3.5517                 5.6439

                      4                      5                      6
                      A                      A                      A
 Frequencies --     99.3163               155.3957               191.0859
 Red. masses --      4.5829                 5.7194                 4.5221
 Frc consts  --      0.0266                 0.0814                 0.0973
 IR Inten    --      1.1264                 1.9517                 0.2057

                      7                      8                      9
                      A                      A                      A
 Frequencies --    225.3809               261.0293               285.6071
 Red. masses --      2.7697                 3.2029                 4.4803
 Frc consts  --      0.0829                 0.1286                 0.2153
 IR Inten    --      1.4177                 0.8312                 3.5075

                     10                     11                     12
                      A                      A                      A
 Frequencies --    291.3023               303.2043               313.6268
 Red. masses --      1.6059                 1.1178                 1.1224
 Frc consts  --      0.0803                 0.0605                 0.0650
 IR Inten    --      6.4959                 1.5284               149.5687

                     13                     14                     15
                      A                      A                      A
 Frequencies --    334.4249               347.3301               377.0906
 Red. masses --      1.9512                 3.1745                 3.5522
 Frc consts  --      0.1286                 0.2256                 0.2976
 IR Inten    --      1.5801                 2.3001                 0.8559

                     16                     17                     18
                      A                      A                      A
 Frequencies --    414.6082               422.9344               432.6808
 Red. masses --      3.8383                 3.1708                 3.3562
 Frc consts  --      0.3887                 0.3342                 0.3702
 IR Inten    --      9.9599                 0.4246                 0.0095

                     19                     20                     21
                      A                      A                      A
 Frequencies --    445.9830               479.8850               490.9617
 Red. masses --      4.8574                 3.7053                 3.4388
 Frc consts  --      0.5692                 0.5027                 0.4884
 IR Inten    --      6.9869                 2.3407                 1.7109

                     22                     23                     24
                      A                      A                      A
 Frequencies --    539.2461               560.3380               571.3090
 Red. masses --      3.7371                 2.3310                 2.4117
 Frc consts  --      0.6403                 0.4312                 0.4638
 IR Inten    --     11.8708                32.9505                25.8662

                     25                     26                     27
                      A                      A                      A
 Frequencies --    648.3494               651.0677               657.4667
 Red. masses --      6.7097                 5.6155                 6.6709
 Frc consts  --      1.6618                 1.4025                 1.6990
 IR Inten    --      1.0611                 3.2022                 0.1424

                     28                     29                     30
                      A                      A                      A
 Frequencies --    737.0356               747.3741               763.7896
 Red. masses --      4.1498                 3.8485                 2.7008
 Frc consts  --      1.3282                 1.2665                 0.9283
 IR Inten    --      8.7439                 3.4977                18.8229

                     31                     32                     33
                      A                      A                      A
 Frequencies --    810.6592               822.3656               839.8137
 Red. masses --      1.2692                 1.3109                 2.3083
 Frc consts  --      0.4914                 0.5223                 0.9592
 IR Inten    --      1.7295                10.5131                56.2009

                     34                     35                     36
                      A                      A                      A
 Frequencies --    844.1593               845.6345               852.5530
 Red. masses --      1.7080                 4.6009                 5.1306
 Frc consts  --      0.7171                 1.9385                 2.1972
 IR Inten    --     34.5624                17.2248                11.8273

                     37                     38                     39
                      A                      A                      A
 Frequencies --    929.3711               937.4919               941.4453
 Red. masses --      1.8815                 1.3092                 1.4240
 Frc consts  --      0.9575                 0.6779                 0.7436
 IR Inten    --      3.5346                 0.0481                 1.0727

                     40                     41                     42
                      A                      A                      A
 Frequencies --    948.1939               953.8554               958.6911
 Red. masses --      1.3867                 1.3738                 1.3321
 Frc consts  --      0.7345                 0.7365                 0.7213
 IR Inten    --      2.0208                 2.6900                 0.1957

                     43                     44                     45
                      A                      A                      A
 Frequencies --   1001.4072              1024.6065              1033.5152
 Red. masses --      2.8310                 1.3944                 2.5557
 Frc consts  --      1.6727                 0.8625                 1.6084
 IR Inten    --      8.1598                 2.2292                 7.7439

                     46                     47                     48
                      A                      A                      A
 Frequencies --   1100.3895              1117.9930              1132.7888
 Red. masses --      1.8767                 1.6085                 2.1969
 Frc consts  --      1.3389                 1.1846                 1.6610
 IR Inten    --     12.8534                11.3898                 0.5958

                     49                     50                     51
                      A                      A                      A
 Frequencies --   1138.3934              1174.1369              1197.6064
 Red. masses --      1.5433                 2.0678                 1.2731
 Frc consts  --      1.1784                 1.6796                 1.0758
 IR Inten    --     28.9597                 9.1279               263.3683

                     52                     53                     54
                      A                      A                      A
 Frequencies --   1202.9185              1213.1453              1255.5525
 Red. masses --      1.3235                 1.1589                 3.4117
 Frc consts  --      1.1283                 1.0049                 3.1687
 IR Inten    --    137.4892                 3.6513                 9.8203

                     55                     56                     57
                      A                      A                      A
 Frequencies --   1265.3502              1274.5244              1301.7635
 Red. masses --      3.6344                 2.8563                 3.4015
 Frc consts  --      3.4285                 2.7337                 3.3961
 IR Inten    --     39.1338                41.1971               124.7019

                     58                     59                     60
                      A                      A                      A
 Frequencies --   1342.5274              1347.2125              1382.0530
 Red. masses --      1.7932                 2.0596                 2.1165
 Frc consts  --      1.9042                 2.2024                 2.3819
 IR Inten    --     40.7559                18.6485                26.2583

                     61                     62                     63
                      A                      A                      A
 Frequencies --   1408.0728              1416.6035              1419.8640
 Red. masses --      1.2632                 2.4440                 1.4143
 Frc consts  --      1.4757                 2.8897                 1.6799
 IR Inten    --     11.6804               171.7426                61.8305

                     64                     65                     66
                      A                      A                      A
 Frequencies --   1468.4219              1474.1035              1510.1470
 Red. masses --      3.5108                 2.8517                 1.0566
 Frc consts  --      4.4602                 3.6510                 1.4197
 IR Inten    --     16.8315                33.6244                 3.4853

                     67                     68                     69
                      A                      A                      A
 Frequencies --   1515.2834              1522.7220              1528.6182
 Red. masses --      1.0666                 1.0655                 1.0794
 Frc consts  --      1.4429                 1.4556                 1.4861
 IR Inten    --      6.3137                 9.1425                16.6352

                     70                     71                     72
                      A                      A                      A
 Frequencies --   1556.1069              1561.2500              1573.4937
 Red. masses --      4.5874                 2.4740                 3.8408
 Frc consts  --      6.5448                 3.5530                 5.6027
 IR Inten    --    200.1720               166.1147               391.4062

                     73                     74                     75
                      A                      A                      A
 Frequencies --   1646.4462              1657.1559              1674.5711
 Red. masses --      5.7642                 5.7179                 5.9500
 Frc consts  --      9.2063                 9.2515                 9.8305
 IR Inten    --     37.9109               354.8843                44.3707

                     76                     77                     78
                      A                      A                      A
 Frequencies --   3061.2860              3066.9194              3130.0792
 Red. masses --      1.0345                 1.0358                 1.1013
 Frc consts  --      5.7120                 5.7405                 6.3569
 IR Inten    --     38.2233                50.4999                19.8483

                     79                     80                     81
                      A                      A                      A
 Frequencies --   3134.1944              3139.1469              3142.7722
 Red. masses --      1.1020                 1.1024                 1.0913
 Frc consts  --      6.3781                 6.4005                 6.3504
 IR Inten    --     89.4249                84.3620                34.5031

                     82                     83                     84
                      A                      A                      A
 Frequencies --   3147.1415              3161.6257              3172.7151
 Red. masses --      1.0965                 1.0859                 1.0917
 Frc consts  --      6.3989                 6.3954                 6.4745
 IR Inten    --     65.8293                50.7071               104.8934

                     85                     86                     87
                      A                      A                      A
 Frequencies --   3178.4869              3189.2458              3204.9988
 Red. masses --      1.0895                 1.0908                 1.0882
 Frc consts  --      6.4851                 6.5368                 6.5856
 IR Inten    --     33.3013                53.8004                17.3497

                     88                     89                     90
                      A                      A                      A
 Frequencies --   3213.1975              3225.9249              3742.5690
 Red. masses --      1.0914                 1.0916                 1.0662
 Frc consts  --      6.6389                 6.6930                 8.7988
 IR Inten    --     12.9014                27.1753               101.5889

 - Thermochemistry -
 -------------------
 Temperature   298.150 Kelvin.  Pressure   1.00000 Atm.
 Atom     1 has atomic number  6 and mass  12.00000

 Molecular mass:   227.10720 amu.
 Principal axes and moments of inertia in atomic units:
                           1         2         3
     Eigenvalues --  2048.767776944.648397845.21297
           X            0.99997   0.00642  -0.00311
           Y           -0.00639   0.99994   0.00875
           Z            0.00317  -0.00873   0.99996
 This molecule is an asymmetric top.
 Rotational symmetry number  1.
 Warning -- assumption of classical behavior for rotation
           may cause significant error
 Rotational temperatures (Kelvin)      0.04228     0.01247     0.01104
 Rotational constants (GHZ):           0.88089     0.25988     0.23004
 Zero-point vibrational energy     687196.8 (Joules/Mol)
                                  164.24398 (Kcal/Mol)
 Warning -- explicit consideration of  24 degrees of freedom as
           vibrations may cause significant error
 Vibrational temperatures:     40.37    46.93    69.86   142.89   223.58
          (Kelvin)            274.93   324.27   375.56   410.92   419.12
                              436.24   451.24   481.16   499.73   542.55
                              596.53   608.51   622.53   641.67   690.45
                              706.38   775.85   806.20   821.99   932.83
                              936.74   945.95  1060.43  1075.30  1098.92
                             1166.36  1183.20  1208.30  1214.56  1216.68
                             1226.63  1337.16  1348.84  1354.53  1364.24
                             1372.39  1379.34  1440.80  1474.18  1487.00
                             1583.22  1608.54  1629.83  1637.89  1689.32
                             1723.09  1730.73  1745.45  1806.46  1820.56
                             1833.76  1872.95  1931.60  1938.34  1988.47
                             2025.90  2038.18  2042.87  2112.73  2120.91
                             2172.76  2180.15  2190.86  2199.34  2238.89
                             2246.29  2263.91  2368.87  2384.28  2409.33
                             4404.51  4412.61  4503.49  4509.41  4516.53
                             4521.75  4528.03  4548.87  4564.83  4573.13
                             4588.61  4611.28  4623.07  4641.39  5384.72

 Zero-point correction=                           0.261739 (Hartree/Particle)
 Thermal correction to Energy=                    0.276799
 Thermal correction to Enthalpy=                  0.277743
 Thermal correction to Gibbs Free Energy=         0.218890
 Sum of electronic and zero-point Energies=           -730.928715
 Sum of electronic and thermal Energies=              -730.913656
 Sum of electronic and thermal Enthalpies=            -730.912712
 Sum of electronic and thermal Free Energies=         -730.971564

                     E (Thermal)             CV                S
                      KCal/Mol        Cal/Mol-Kelvin    Cal/Mol-Kelvin
 Total                  173.694             60.339            123.866
 Electronic               0.000              0.000              0.000
 Translational            0.889              2.981             42.163
 Rotational               0.889              2.981             33.079
 Vibrational            171.916             54.377             48.624
 Vibration     1          0.593              1.984              5.962
 Vibration     2          0.594              1.983              5.663
 Vibration     3          0.595              1.978              4.875
 Vibration     4          0.604              1.950              3.468
 Vibration     5          0.620              1.897              2.605
 Vibration     6          0.634              1.852              2.217
 Vibration     7          0.650              1.802              1.915
 Vibration     8          0.669              1.744              1.655
 Vibration     9          0.683              1.700              1.500
 Vibration    10          0.687              1.690              1.466
 Vibration    11          0.695              1.668              1.399
 Vibration    12          0.701              1.648              1.343
 Vibration    13          0.716              1.607              1.239
 Vibration    14          0.725              1.581              1.178
 Vibration    15          0.748              1.519              1.051
 Vibration    16          0.778              1.439              0.910
 Vibration    17          0.785              1.420              0.882
 Vibration    18          0.794              1.399              0.850
 Vibration    19          0.805              1.370              0.808
 Vibration    20          0.836              1.295              0.710
 Vibration    21          0.847              1.270              0.681
 Vibration    22          0.894              1.163              0.567
 Vibration    23          0.916              1.117              0.523
 Vibration    24          0.927              1.093              0.502

 Optimization completed.
    -- Stationary point found.
 Normal termination of Gaussian 16 at Mon Jul 12 14:00:26 2021.

 ----------------------------------------------------------------------
 #p b3lyp/6-31G(d) scrf=(iefpcm,read,solvent=n-octanol) geom=allcheck g
 uess=read
 ----------------------------------------------------------------------

 Structure from the checkpoint file:  "SET_328_BBB212_conf1.geo_300_135.chk"
 -----------------------------------------
 SET_328_BBB212_conf1.geo_300_135 geometry
 -----------------------------------------
 Charge = -1 Multiplicity = 1

 SCF Done:  E(RB3LYP) =  -731.190454639     A.U. after    1 cycles
 Normal termination of Gaussian 16 at Mon Jul 12 14:01:12 2021.

 -----------------------------
 #p B3LYP/6-31G* geom=allcheck
 -----------------------------

 Structure from the checkpoint file:  "SET_328_BBB212_conf1.geo_300_135.chk"
 -----------------------------------------
 SET_328_BBB212_conf1.geo_300_135 geometry
 -----------------------------------------
 Charge = -1 Multiplicity = 1

 SCF Done:  E(RB3LYP) =  -731.091439239     A.U. after   19 cycles
 Normal termination of Gaussian 16 at Mon Jul 12 14:03:54 2021.
 Gaussian 16:  ES64L-G16RevA.03 25-Dec-2016

 --------------------------------------------------------
 #p mp2/aug-cc-pVDZ scf=tight maxdisk=180GB geom=allcheck
 --------------------------------------------------------

 Structure from the checkpoint file:  "SET_328_BBB212_conf1.geo_300_135.chk"
 -----------------------------------------
 SET_328_BBB212_conf1.geo_300_135 geometry
 -----------------------------------------
 Charge = -1 Multiplicity = 1

                         Standard orientation:
 ---------------------------------------------------------------------
 Center     Atomic      Atomic             Coordinates (Angstroms)
 Number     Number       Type             X           Y           Z
 ---------------------------------------------------------------------
      1          6           0        0.086840    2.399701    1.149015
      2          1           0        0.997410    3.001322    1.091207
      3          1           0        0.101000    1.860677    2.099790
      4          1           0       -0.766867    3.083993    1.153743
      5          6           0        0.040534    1.427113   -0.046289
      6          6           0       -0.030306    2.281254   -1.328781
      7          1           0       -0.073420    1.659555   -2.227520
      8          1           0        0.843353    2.934719   -1.410775
      9          1           0       -0.925605    2.907871   -1.308316
     10          6           0       -1.226158    0.552970   -0.004624
     11          6           0       -1.297747   -0.604975   -0.790553
     12          6           0       -2.440953   -1.397598   -0.836016
     13          6           0       -3.560790   -1.049184   -0.073076
     14          8           0       -4.714392   -1.787874   -0.061762
     15          1           0       -4.606604   -2.555437   -0.646018
     16          6           0       -3.515157    0.097267    0.721536
     17          6           0       -2.362072    0.882671    0.745979
     18          1           0       -2.356198    1.768236    1.371118
     19          1           0       -4.383608    0.362313    1.316282
     20          1           0       -2.459923   -2.290570   -1.456181
     21          1           0       -0.425907   -0.896353   -1.367473
     22          6           0        1.299220    0.553281   -0.016276
     23          6           0        2.264362    0.542641   -1.033700
     24          1           0        2.118056    1.168162   -1.910174
     25          6           0        3.414083   -0.239664   -0.963276
     26          1           0        4.135604   -0.214152   -1.777091
     27          6           0        3.702283   -1.094398    0.154080
     28          8           0        4.759325   -1.819584    0.235961
     29          6           0        2.695422   -1.062931    1.183224
     30          1           0        2.856757   -1.690636    2.057402
     31          6           0        1.556281   -0.277555    1.091454
     32          1           0        0.831440   -0.303589    1.904235
 ---------------------------------------------------------------------

 SCF Done:  E(RHF) =  -726.571252170     A.U. after   18 cycles
 E2 =    -0.2501485623D+01 EUMP2 =    -0.72907273779378D+03

 The electronic state is 1-A.
 Alpha  occ. eigenvalues --  -20.52091 -20.30422 -11.21740 -11.14948 -11.14888
 Alpha  occ. eigenvalues --  -11.14531 -11.14424 -11.14075 -11.13841 -11.12045
 Alpha  occ. eigenvalues --  -11.11932 -11.11653 -11.09073 -11.08975 -11.07087
 Alpha  occ. eigenvalues --  -11.05805 -11.05384  -1.32575  -1.11869  -1.06246
 Alpha  occ. eigenvalues --   -1.00452  -0.95103  -0.92737  -0.89421  -0.85334
 Alpha  occ. eigenvalues --   -0.82761  -0.81283  -0.75876  -0.73658  -0.68316
 Alpha  occ. eigenvalues --   -0.66042  -0.64504  -0.61765  -0.57779  -0.55613
 Alpha  occ. eigenvalues --   -0.52875  -0.51662  -0.50719  -0.49540  -0.49123
 Alpha  occ. eigenvalues --   -0.48270  -0.46499  -0.46134  -0.45188  -0.43723
 Alpha  occ. eigenvalues --   -0.43044  -0.41666  -0.39988  -0.39251  -0.37488
 Alpha  occ. eigenvalues --   -0.37288  -0.36813  -0.35112  -0.33201  -0.32438
 Alpha  occ. eigenvalues --   -0.27250  -0.24868  -0.21329  -0.20252  -0.18267
 Alpha  occ. eigenvalues --   -0.09543
 Alpha virt. eigenvalues --    0.09430   0.10323   0.11321   0.12070   0.12345
 Alpha virt. eigenvalues --    0.12963   0.13627   0.13903   0.14650   0.15013
 Alpha virt. eigenvalues --    0.15641   0.16358   0.16834   0.17374   0.17584

 Mulliken charges:
               1
     1  C    1.105627
     2  H   -0.201063
     3  H   -0.061940
     4  H   -0.081894
     5  C   -0.888115
     6  C    0.893797
     7  H   -0.001677
     8  H   -0.041387
     9  H   -0.208477
    10  C    0.947852
    11  C   -0.081347
    12  C    0.064703
    13  C    0.693373
    14  O   -0.948714
    15  H    0.172270
    16  C    0.253625
    17  C    1.223436
    18  H   -0.838902
    19  H   -0.527794
    20  H   -0.592504
    21  H   -0.683797
    22  C    1.105566
    23  C    0.643208
    24  H   -0.899056
    25  C    0.133451
    26  H   -0.542946
    27  C    0.412194
    28  O   -1.147091
    29  C    0.187040
    30  H   -0.552246
    31  C    0.295490
    32  H   -0.832682
 Sum of Mulliken charges =  -1.00000

 Dipole moment (field-independent basis, Debye):
    X=            -14.5223    Y=              4.4713    Z=             -1.5870  Tot=             15.2777
 Quadrupole moment (field-independent basis, Debye-Ang):
   XX=           -196.4781   YY=           -115.0639   ZZ=           -106.9425
   XY=             28.7255   XZ=             -1.7176   YZ=              5.8586

 Normal termination of Gaussian 16 at Mon Jul 12 14:59:06 2021.
