 Gaussian 16, Revision A.03,

 ---------------------------------------------------------------
 #p b3lyp/6-31G(d) opt freq scrf=(iefpcm,read,solvent=n-octanol)
 ---------------------------------------------------------------

 ----------------------------------------
 SET_328_BBB87_conf1.geo_075_240 geometry
 ----------------------------------------
 Symbolic Z-matrix:
 Charge =  1 Multiplicity = 1

 SCF Done:  E(RB3LYP) =  -703.488929332     A.U. after   13 cycles
 SCF Done:  E(RB3LYP) =  -703.503920062     A.U. after   12 cycles
 SCF Done:  E(RB3LYP) =  -703.504039468     A.U. after   12 cycles
 SCF Done:  E(RB3LYP) =  -703.505689331     A.U. after   11 cycles
 SCF Done:  E(RB3LYP) =  -703.506479222     A.U. after   11 cycles
 SCF Done:  E(RB3LYP) =  -703.506693961     A.U. after   11 cycles
 SCF Done:  E(RB3LYP) =  -703.506743329     A.U. after   10 cycles
 SCF Done:  E(RB3LYP) =  -703.506892367     A.U. after   10 cycles
 SCF Done:  E(RB3LYP) =  -703.498353037     A.U. after   12 cycles
 SCF Done:  E(RB3LYP) =  -703.483226037     A.U. after   12 cycles
 SCF Done:  E(RB3LYP) =  -703.511221904     A.U. after    9 cycles
 SCF Done:  E(RB3LYP) =  -703.511245636     A.U. after   10 cycles
 SCF Done:  E(RB3LYP) =  -703.511241616     A.U. after    9 cycles
 SCF Done:  E(RB3LYP) =  -703.511242622     A.U. after    7 cycles
 SCF Done:  E(RB3LYP) =  -703.511246668     A.U. after    9 cycles
 SCF Done:  E(RB3LYP) =  -703.511243080     A.U. after    9 cycles
 Optimization completed.
    -- Stationary point found.
 Normal termination of Gaussian 16 at Mon Jul 12 13:17:11 2021.

 --------------------------------------------------------------------
 #P Geom=AllCheck Guess=TCheck SCRF=Check GenChk RB3LYP/6-31G(d) Freq
 --------------------------------------------------------------------

 Structure from the checkpoint file:  "SET_328_BBB87_conf1.geo_075_240.chk"
 ----------------------------------------
 SET_328_BBB87_conf1.geo_075_240 geometry
 ----------------------------------------
 Charge =  1 Multiplicity = 1

 SCF Done:  E(RB3LYP) =  -703.511243080     A.U. after    1 cycles

  Exact polarizability: 117.248   0.749 100.855   3.118  -1.442  54.790
 Approx polarizability: 145.800   6.862 140.917   4.837  -2.207  70.544

                      1                      2                      3
                      A                      A                      A
 Frequencies --     97.2562               191.5006               199.5410
 Red. masses --      4.4195                 2.5054                 3.7818
 Frc consts  --      0.0246                 0.0541                 0.0887
 IR Inten    --     14.1442                 3.3931                58.6562

                      4                      5                      6
                      A                      A                      A
 Frequencies --    272.4173               319.9341               437.5849
 Red. masses --      4.2924                 2.8227                 1.2655
 Frc consts  --      0.1877                 0.1702                 0.1428
 IR Inten    --     28.7697                20.1264                 2.5288

                      7                      8                      9
                      A                      A                      A
 Frequencies --    470.7538               506.8245               587.4820
 Red. masses --      1.7659                 4.4909                 5.0843
 Frc consts  --      0.2306                 0.6797                 1.0339
 IR Inten    --      5.2187                 2.9913                 3.1523

                     10                     11                     12
                      A                      A                      A
 Frequencies --    624.6674               713.5421               750.6418
 Red. masses --      4.8163                 2.9758                 1.2883
 Frc consts  --      1.1073                 0.8927                 0.4277
 IR Inten    --     11.1221                 7.3411                43.2939

                     13                     14                     15
                      A                      A                      A
 Frequencies --    766.8535               868.1937               888.6937
 Red. masses --      7.5728                 2.5731                 3.9091
 Frc consts  --      2.6238                 1.1427                 1.8190
 IR Inten    --      8.8102                 4.9390                17.5454

                     16                     17                     18
                      A                      A                      A
 Frequencies --    902.3090               910.6650               974.2738
 Red. masses --      1.3128                 1.6514                 1.4596
 Frc consts  --      0.6297                 0.8069                 0.8163
 IR Inten    --      1.6684                62.7779                 7.9934

                     19                     20                     21
                      A                      A                      A
 Frequencies --   1041.2275              1097.3460              1111.9079
 Red. masses --      3.1060                 1.5378                 1.4674
 Frc consts  --      1.9840                 1.0910                 1.0689
 IR Inten    --      4.6187                78.7758               123.3607

                     22                     23                     24
                      A                      A                      A
 Frequencies --   1154.1755              1175.6705              1219.9738
 Red. masses --      1.3953                 2.0378                 1.8642
 Frc consts  --      1.0952                 1.6596                 1.6347
 IR Inten    --     20.8213                22.4811                 6.5056

                     25                     26                     27
                      A                      A                      A
 Frequencies --   1315.3132              1356.8556              1373.0539
 Red. masses --      1.2699                 2.0092                 1.2729
 Frc consts  --      1.2944                 2.1795                 1.4139
 IR Inten    --     34.7452                 2.2025                41.0260

                     28                     29                     30
                      A                      A                      A
 Frequencies --   1413.1843              1437.1041              1494.0841
 Red. masses --      1.4966                 1.4112                 3.3005
 Frc consts  --      1.7610                 1.7172                 4.3409
 IR Inten    --     15.4612                22.5878                39.5180

                     31                     32                     33
                      A                      A                      A
 Frequencies --   1511.4677              1522.8761              1546.4918
 Red. masses --      1.2964                 1.1089                 1.1640
 Frc consts  --      1.7450                 1.5152                 1.6403
 IR Inten    --      9.3697                 9.2265               333.1717

                     34                     35                     36
                      A                      A                      A
 Frequencies --   1570.3798              1668.6050              1688.8027
 Red. masses --      4.7954                 1.0420                 1.0392
 Frc consts  --      6.9677                 1.7093                 1.7462
 IR Inten    --     11.2542                56.2394                64.6082

                     37                     38                     39
                      A                      A                      A
 Frequencies --   3080.6039              3131.4935              3142.7521
 Red. masses --      1.0669                 1.0909                 1.0663
 Frc consts  --      5.9657                 6.3027                 6.2054
 IR Inten    --      9.9567                 1.8613                25.3821

                     40                     41                     42
                      A                      A                      A
 Frequencies --   3199.3005              3226.3414              3272.8811
 Red. masses --      1.1093                 1.0675                 1.0911
 Frc consts  --      6.6897                 6.5471                 6.8862
 IR Inten    --     49.1074               470.0991                 2.7742

                     43                     44                     45
                      A                      A                      A
 Frequencies --   3304.4034              3437.8799              3487.2911
 Red. masses --      1.0998                 1.0615                 1.0945
 Frc consts  --      7.0751                 7.3916                 7.8423
 IR Inten    --      3.7604               233.1909               190.7723

 - Thermochemistry -
 -------------------
 Temperature   298.150 Kelvin.  Pressure   1.00000 Atm.
 Atom     1 has atomic number  7 and mass  14.00307

 Molecular mass:   129.04865 amu.
 Principal axes and moments of inertia in atomic units:
                           1         2         3
     Eigenvalues --   483.838031540.414971957.21619
           X            0.99983  -0.01825   0.00088
           Y            0.01825   0.99983  -0.00061
           Z           -0.00087   0.00063   1.00000
 This molecule is an asymmetric top.
 Rotational symmetry number  1.
 Warning -- assumption of classical behavior for rotation
           may cause significant error
 Rotational temperatures (Kelvin)      0.17901     0.05623     0.04425
 Rotational constants (GHZ):           3.73005     1.17159     0.92210
 Zero-point vibrational energy     385583.9 (Joules/Mol)
                                   92.15677 (Kcal/Mol)
 Warning -- explicit consideration of   9 degrees of freedom as
           vibrations may cause significant error
 Vibrational temperatures:    139.93   275.53   287.09   391.95   460.31
          (Kelvin)            629.59   677.31   729.21   845.26   898.76
                             1026.63  1080.01  1103.33  1249.14  1278.63
                             1298.22  1310.24  1401.76  1498.09  1578.84
                             1599.79  1660.60  1691.53  1755.27  1892.44
                             1952.21  1975.52  2033.26  2067.67  2149.65
                             2174.66  2191.08  2225.06  2259.43  2400.75
                             2429.81  4432.30  4505.52  4521.72  4603.08
                             4641.99  4708.95  4754.30  4946.34  5017.43

 Zero-point correction=                           0.146861 (Hartree/Particle)
 Thermal correction to Energy=                    0.154230
 Thermal correction to Enthalpy=                  0.155174
 Thermal correction to Gibbs Free Energy=         0.114766
 Sum of electronic and zero-point Energies=           -703.364382
 Sum of electronic and thermal Energies=              -703.357013
 Sum of electronic and thermal Enthalpies=            -703.356069
 Sum of electronic and thermal Free Energies=         -703.396477

                     E (Thermal)             CV                S
                      KCal/Mol        Cal/Mol-Kelvin    Cal/Mol-Kelvin
 Total                   96.781             28.166             85.046
 Electronic               0.000              0.000              0.000
 Translational            0.889              2.981             40.478
 Rotational               0.889              2.981             28.769
 Vibrational             95.003             22.204             15.799
 Vibration     1          0.603              1.951              3.509
 Vibration     2          0.634              1.852              2.213
 Vibration     3          0.638              1.841              2.137
 Vibration     4          0.675              1.724              1.581
 Vibration     5          0.706              1.635              1.310
 Vibration     6          0.798              1.388              0.834
 Vibration     7          0.828              1.315              0.735
 Vibration     8          0.862              1.235              0.641
 Vibration     9          0.945              1.058              0.472

 Optimization completed.
    -- Stationary point found.
 Normal termination of Gaussian 16 at Mon Jul 12 13:21:52 2021.

 ----------------------------------------------------------------------
 #p b3lyp/6-31G(d) scrf=(iefpcm,read,solvent=n-octanol) geom=allcheck g
 uess=read
 ----------------------------------------------------------------------

 Structure from the checkpoint file:  "SET_328_BBB87_conf1.geo_075_240.chk"
 ----------------------------------------
 SET_328_BBB87_conf1.geo_075_240 geometry
 ----------------------------------------
 Charge =  1 Multiplicity = 1

 SCF Done:  E(RB3LYP) =  -703.513966220     A.U. after    1 cycles
 Normal termination of Gaussian 16 at Mon Jul 12 13:22:04 2021.

 -----------------------------
 #p B3LYP/6-31G* geom=allcheck
 -----------------------------

 Structure from the checkpoint file:  "SET_328_BBB87_conf1.geo_075_240.chk"
 ----------------------------------------
 SET_328_BBB87_conf1.geo_075_240 geometry
 ----------------------------------------
 Charge =  1 Multiplicity = 1

 SCF Done:  E(RB3LYP) =  -703.410738704     A.U. after   15 cycles
 Normal termination of Gaussian 16 at Mon Jul 12 13:22:35 2021.
 Gaussian 16:  ES64L-G16RevA.03 25-Dec-2016

 --------------------------------------------------------
 #p mp2/aug-cc-pVDZ scf=tight maxdisk=180GB geom=allcheck
 --------------------------------------------------------

 Structure from the checkpoint file:  "SET_328_BBB87_conf1.geo_075_240.chk"
 ----------------------------------------
 SET_328_BBB87_conf1.geo_075_240 geometry
 ----------------------------------------
 Charge =  1 Multiplicity = 1

                         Standard orientation:
 ---------------------------------------------------------------------
 Center     Atomic      Atomic             Coordinates (Angstroms)
 Number     Number       Type             X           Y           Z
 ---------------------------------------------------------------------
      1          7           0        2.698434    0.806896    0.178836
      2          1           0        1.843968    1.399483    0.183769
      3          1           0        3.440568    1.295825   -0.337005
      4          6           0        2.348255   -0.507511   -0.453925
      5          1           0        3.218358   -1.156807   -0.376254
      6          1           0        2.150355   -0.304711   -1.506035
      7          6           0        1.134324   -1.143170    0.219278
      8          1           0        1.348054   -1.327921    1.278438
      9          1           0        0.976799   -2.125180   -0.234140
     10          6           0       -0.105658   -0.303254    0.089258
     11          7           0       -0.083303    1.004507    0.045587
     12          6           0       -1.351599    1.531695   -0.052839
     13          1           0       -1.476497    2.604045   -0.101941
     14          6           0       -2.363299    0.619611   -0.080817
     15          1           0       -3.426546    0.790668   -0.153038
     16         16           0       -1.710835   -0.983821    0.012439
     17          1           0        3.020247    0.701679    1.150502
 ---------------------------------------------------------------------

 SCF Done:  E(RHF) =  -700.832027268     A.U. after   16 cycles
 E2 =    -0.1192967421D+01 EUMP2 =    -0.70202499468946D+03

 The electronic state is 1-A.
 Alpha  occ. eigenvalues --  -92.13088 -15.87200 -15.72845 -11.47912 -11.46857
 Alpha  occ. eigenvalues --  -11.42711 -11.40565 -11.40121  -9.13277  -6.81417
 Alpha  occ. eigenvalues --   -6.81327  -6.81153  -1.48992  -1.42854  -1.24167
 Alpha  occ. eigenvalues --   -1.20081  -1.13773  -1.05264  -0.95601  -0.94398
 Alpha  occ. eigenvalues --   -0.92908  -0.87881  -0.83808  -0.82090  -0.77721
 Alpha  occ. eigenvalues --   -0.74846  -0.73094  -0.70048  -0.68458  -0.67801
 Alpha  occ. eigenvalues --   -0.63423  -0.58030  -0.52652  -0.46817
 Alpha virt. eigenvalues --   -0.09987  -0.07212  -0.06854  -0.05752  -0.04015
 Alpha virt. eigenvalues --   -0.03771  -0.03606  -0.03381  -0.02607  -0.01553
 Alpha virt. eigenvalues --   -0.01402  -0.00047   0.00047   0.01113   0.01701

 Mulliken charges:
               1
     1  N   -0.367625
     2  H    0.249185
     3  H    0.169490
     4  C    0.916151
     5  H   -0.098137
     6  H   -0.139943
     7  C    0.160264
     8  H    0.027328
     9  H    0.051001
    10  C   -0.138981
    11  N   -0.660008
    12  C    0.673919
    13  H   -0.262441
    14  C    0.133267
    15  H   -0.330781
    16  S    0.383257
    17  H    0.234054
 Sum of Mulliken charges =   1.00000

 Dipole moment (field-independent basis, Debye):
    X=              8.6246    Y=              1.4181    Z=              0.3793  Tot=              8.7486
 Quadrupole moment (field-independent basis, Debye-Ang):
   XX=            -11.4817   YY=            -44.3872   ZZ=            -53.1640
   XY=              3.0390   XZ=              1.9878   YZ=              0.2283

 Normal termination of Gaussian 16 at Mon Jul 12 13:25:27 2021.
