 Gaussian 16, Revision A.03,

 ---------------------------------------------------------------
 #p b3lyp/6-31G(d) opt freq scrf=(iefpcm,read,solvent=n-octanol)
 ---------------------------------------------------------------

 -----------------------------------------
 SET_328_BBB304_conf1.geo_210_060 geometry
 -----------------------------------------
 Symbolic Z-matrix:
 Charge =  1 Multiplicity = 1

 SCF Done:  E(RB3LYP) =  -741.132720369     A.U. after   13 cycles
 SCF Done:  E(RB3LYP) =  -741.173551711     A.U. after   12 cycles
 SCF Done:  E(RB3LYP) =  -741.190852557     A.U. after   12 cycles
 SCF Done:  E(RB3LYP) =  -741.193557532     A.U. after   11 cycles
 SCF Done:  E(RB3LYP) =  -741.194623044     A.U. after   11 cycles
 SCF Done:  E(RB3LYP) =  -741.194830846     A.U. after   10 cycles
 SCF Done:  E(RB3LYP) =  -741.195182348     A.U. after   10 cycles
 SCF Done:  E(RB3LYP) =  -741.195453271     A.U. after   11 cycles
 SCF Done:  E(RB3LYP) =  -741.195541747     A.U. after   10 cycles
 SCF Done:  E(RB3LYP) =  -741.196130620     A.U. after   10 cycles
 SCF Done:  E(RB3LYP) =  -741.199918709     A.U. after    8 cycles
 SCF Done:  E(RB3LYP) =  -741.199916259     A.U. after    8 cycles
 SCF Done:  E(RB3LYP) =  -741.199914780     A.U. after    8 cycles
 SCF Done:  E(RB3LYP) =  -741.199918685     A.U. after    9 cycles
 SCF Done:  E(RB3LYP) =  -741.199912565     A.U. after    9 cycles
 SCF Done:  E(RB3LYP) =  -741.199911949     A.U. after    6 cycles
 Optimization completed.
    -- Stationary point found.
 Normal termination of Gaussian 16 at Mon Jul 12 13:43:50 2021.

 --------------------------------------------------------------------
 #P Geom=AllCheck Guess=TCheck SCRF=Check GenChk RB3LYP/6-31G(d) Freq
 --------------------------------------------------------------------

 Structure from the checkpoint file:  "SET_328_BBB304_conf1.geo_210_060.chk"
 -----------------------------------------
 SET_328_BBB304_conf1.geo_210_060 geometry
 -----------------------------------------
 Charge =  1 Multiplicity = 1

 SCF Done:  E(RB3LYP) =  -741.199911949     A.U. after    1 cycles

  Exact polarizability: 197.760  11.831 146.067   0.542 -10.779  89.481
 Approx polarizability: 221.099  18.818 189.612  -3.478 -17.354 113.393

                      1                      2                      3
                      A                      A                      A
 Frequencies --     26.3421                46.6539                70.2471
 Red. masses --      5.0095                 4.4591                 4.7531
 Frc consts  --      0.0020                 0.0057                 0.0138
 IR Inten    --      0.5583                 1.8646                 1.0131

                      4                      5                      6
                      A                      A                      A
 Frequencies --     98.5672               127.1483               171.6990
 Red. masses --      4.8064                 2.7824                 4.8685
 Frc consts  --      0.0275                 0.0265                 0.0846
 IR Inten    --      9.8133                 0.9850                 1.6549

                      7                      8                      9
                      A                      A                      A
 Frequencies --    189.4687               222.0429               235.9314
 Red. masses --      4.6022                 5.1420                 3.1571
 Frc consts  --      0.0973                 0.1494                 0.1035
 IR Inten    --      5.8868                12.2095                 9.3593

                     10                     11                     12
                      A                      A                      A
 Frequencies --    293.3940               315.5511               381.9679
 Red. masses --      3.0867                 3.4202                 2.7258
 Frc consts  --      0.1565                 0.2007                 0.2343
 IR Inten    --      5.5103                17.8155                50.4043

                     13                     14                     15
                      A                      A                      A
 Frequencies --    389.0066               418.4590               421.7598
 Red. masses --      2.0951                 1.3553                 1.7111
 Frc consts  --      0.1868                 0.1398                 0.1793
 IR Inten    --     89.5090               193.2941               211.2784

                     16                     17                     18
                      A                      A                      A
 Frequencies --    445.6472               532.7090               540.3039
 Red. masses --      2.8831                 1.0425                 3.4154
 Frc consts  --      0.3374                 0.1743                 0.5874
 IR Inten    --     30.1581                 3.8666                 6.7377

                     19                     20                     21
                      A                      A                      A
 Frequencies --    571.3036               579.1809               614.3404
 Red. masses --      2.9861                 5.2178                 5.6127
 Frc consts  --      0.5742                 1.0313                 1.2481
 IR Inten    --      4.2611                11.0197                 2.3223

                     22                     23                     24
                      A                      A                      A
 Frequencies --    662.3605               668.7245               680.5174
 Red. masses --      3.2655                 1.2323                 4.0049
 Frc consts  --      0.8441                 0.3247                 1.0927
 IR Inten    --      6.2002               100.8729                36.4293

                     25                     26                     27
                      A                      A                      A
 Frequencies --    711.6857               763.9499               791.8089
 Red. masses --      3.2844                 9.4165                 5.3455
 Frc consts  --      0.9801                 3.2379                 1.9746
 IR Inten    --      2.3937                77.9530                15.5798

                     28                     29                     30
                      A                      A                      A
 Frequencies --    796.4894               809.3164               845.6341
 Red. masses --      1.7230                 4.4187                 3.9130
 Frc consts  --      0.6440                 1.7052                 1.6486
 IR Inten    --     35.4294                 6.8678                35.1058

                     31                     32                     33
                      A                      A                      A
 Frequencies --    867.0307               916.4700               957.1067
 Red. masses --      2.0087                 1.7466                 2.5647
 Frc consts  --      0.8897                 0.8643                 1.3842
 IR Inten    --     15.4442                21.1459                30.5637

                     34                     35                     36
                      A                      A                      A
 Frequencies --    986.6849              1009.5411              1012.2379
 Red. masses --      2.1688                 1.6392                 1.6937
 Frc consts  --      1.2440                 0.9843                 1.0224
 IR Inten    --     29.5766                 6.4042                 5.5809

                     37                     38                     39
                      A                      A                      A
 Frequencies --   1022.1829              1043.4138              1088.9123
 Red. masses --      1.7270                 2.0719                 2.7758
 Frc consts  --      1.0631                 1.3290                 1.9392
 IR Inten    --      3.3821                34.1987                44.8028

                     40                     41                     42
                      A                      A                      A
 Frequencies --   1105.2185              1127.1632              1131.5081
 Red. masses --      2.9905                 3.4275                 2.4128
 Frc consts  --      2.1522                 2.5656                 1.8201
 IR Inten    --    239.7693               293.6524                42.1852

                     43                     44                     45
                      A                      A                      A
 Frequencies --   1145.8934              1196.1238              1213.5129
 Red. masses --      2.1870                 1.5467                 1.4767
 Frc consts  --      1.6920                 1.3038                 1.2812
 IR Inten    --      1.6655                12.8617                11.1031

                     46                     47                     48
                      A                      A                      A
 Frequencies --   1233.7130              1244.4499              1251.6887
 Red. masses --      1.4164                 1.2846                 6.0905
 Frc consts  --      1.2702                 1.1722                 5.6221
 IR Inten    --     60.0353                15.8176                 8.8638

                     49                     50                     51
                      A                      A                      A
 Frequencies --   1315.7105              1318.4175              1338.4914
 Red. masses --      1.3640                 1.4346                 1.2985
 Frc consts  --      1.3912                 1.4693                 1.3706
 IR Inten    --    189.6241               123.0996                 8.2770

                     52                     53                     54
                      A                      A                      A
 Frequencies --   1357.1591              1378.5603              1386.0203
 Red. masses --      1.4353                 1.3671                 1.4370
 Frc consts  --      1.5576                 1.5308                 1.6265
 IR Inten    --     55.0059                22.8660                 5.7720

                     55                     56                     57
                      A                      A                      A
 Frequencies --   1402.5682              1431.3956              1433.0630
 Red. masses --      1.4049                 1.4135                 1.3090
 Frc consts  --      1.6283                 1.7064                 1.5838
 IR Inten    --     12.9517                14.3853                42.5112

                     58                     59                     60
                      A                      A                      A
 Frequencies --   1439.2584              1477.3058              1512.8054
 Red. masses --      1.6381                 1.8812                 1.0852
 Frc consts  --      1.9993                 2.4189                 1.4633
 IR Inten    --     58.5684                 5.0777                 4.8320

                     61                     62                     63
                      A                      A                      A
 Frequencies --   1518.9406              1526.6265              1578.0260
 Red. masses --      1.0903                 1.1135                 5.9088
 Frc consts  --      1.4821                 1.5290                 8.6691
 IR Inten    --      0.9822                 8.9596               233.4757

                     64                     65                     66
                      A                      A                      A
 Frequencies --   1629.2050              1677.1679              1707.6320
 Red. masses --      2.2156                 2.1198                 2.6031
 Frc consts  --      3.4650                 3.5131                 4.4723
 IR Inten    --     18.6314               121.4585              1262.4670

                     67                     68                     69
                      A                      A                      A
 Frequencies --   1818.5436              3037.8031              3051.3941
 Red. masses --      9.1261                 1.0730                 1.0815
 Frc consts  --     17.7820                 5.8343                 5.9329
 IR Inten    --    766.7435                24.9551               102.1162

                     70                     71                     72
                      A                      A                      A
 Frequencies --   3097.7622              3101.5125              3122.7031
 Red. masses --      1.0695                 1.0597                 1.0870
 Frc consts  --      6.0469                 6.0058                 6.2454
 IR Inten    --     12.3018                17.0165                21.7009

                     73                     74                     75
                      A                      A                      A
 Frequencies --   3125.0109              3153.2312              3176.3285
 Red. masses --      1.0963                 1.1059                 1.0999
 Frc consts  --      6.3079                 6.4787                 6.5380
 IR Inten    --     30.4098                14.7849                13.2520

                     76                     77                     78
                      A                      A                      A
 Frequencies --   3283.2108              3294.1102              3529.4879
 Red. masses --      1.0903                 1.0967                 1.0787
 Frc consts  --      6.9246                 7.0114                 7.9170
 IR Inten    --     11.7634                 7.5359               234.9154

                     79                     80                     81
                      A                      A                      A
 Frequencies --   3582.1886              3690.4021              3729.5880
 Red. masses --      1.0471                 1.1072                 1.0659
 Frc consts  --      7.9168                 8.8847                 8.7351
 IR Inten    --    448.8863               165.9254                42.6787

 - Thermochemistry -
 -------------------
 Temperature   298.150 Kelvin.  Pressure   1.00000 Atm.
 Atom     1 has atomic number  7 and mass  14.00307

 Molecular mass:   212.10352 amu.
 Principal axes and moments of inertia in atomic units:
                           1         2         3
     Eigenvalues --  1208.368145851.212356511.10411
           X            0.99998   0.00487   0.00416
           Y           -0.00490   0.99996   0.00796
           Z           -0.00412  -0.00798   0.99996
 This molecule is an asymmetric top.
 Rotational symmetry number  1.
 Warning -- assumption of classical behavior for rotation
           may cause significant error
 Rotational temperatures (Kelvin)      0.07168     0.01480     0.01330
 Rotational constants (GHZ):           1.49354     0.30844     0.27718
 Zero-point vibrational energy     641178.6 (Joules/Mol)
                                  153.24537 (Kcal/Mol)
 Warning -- explicit consideration of  21 degrees of freedom as
           vibrations may cause significant error
 Vibrational temperatures:     37.90    67.12   101.07   141.82   182.94
          (Kelvin)            247.04   272.60   319.47   339.45   422.13
                              454.01   549.57   559.69   602.07   606.82
                              641.19   766.45   777.38   821.98   833.31
                              883.90   952.99   962.15   979.11  1023.96
                             1099.15  1139.24  1145.97  1164.43  1216.68
                             1247.46  1318.60  1377.06  1419.62  1452.50
                             1456.38  1470.69  1501.24  1566.70  1590.16
                             1621.74  1627.99  1648.69  1720.96  1745.97
                             1775.04  1790.49  1800.90  1893.01  1896.91
                             1925.79  1952.65  1983.44  1994.17  2017.98
                             2059.46  2061.86  2070.77  2125.51  2176.59
                             2185.42  2196.48  2270.43  2344.06  2413.07
                             2456.90  2616.48  4370.72  4390.28  4456.99
                             4462.38  4492.87  4496.19  4536.80  4570.03
                             4723.81  4739.49  5078.15  5153.97  5309.67
                             5366.05

 Zero-point correction=                           0.244212 (Hartree/Particle)
 Thermal correction to Energy=                    0.257935
 Thermal correction to Enthalpy=                  0.258879
 Thermal correction to Gibbs Free Energy=         0.202735
 Sum of electronic and zero-point Energies=           -740.955700
 Sum of electronic and thermal Energies=              -740.941977
 Sum of electronic and thermal Enthalpies=            -740.941033
 Sum of electronic and thermal Free Energies=         -740.997177

                     E (Thermal)             CV                S
                      KCal/Mol        Cal/Mol-Kelvin    Cal/Mol-Kelvin
 Total                  161.857             53.032            118.165
 Electronic               0.000              0.000              0.000
 Translational            0.889              2.981             41.959
 Rotational               0.889              2.981             32.199
 Vibrational            160.079             47.070             44.007
 Vibration     1          0.593              1.985              6.087
 Vibration     2          0.595              1.979              4.954
 Vibration     3          0.598              1.968              4.146
 Vibration     4          0.604              1.950              3.482
 Vibration     5          0.611              1.926              2.989
 Vibration     6          0.626              1.877              2.417
 Vibration     7          0.633              1.854              2.233
 Vibration     8          0.648              1.808              1.942
 Vibration     9          0.655              1.786              1.833
 Vibration    10          0.688              1.686              1.454
 Vibration    11          0.703              1.644              1.333
 Vibration    12          0.751              1.509              1.031
 Vibration    13          0.757              1.494              1.004
 Vibration    14          0.781              1.430              0.897
 Vibration    15          0.784              1.423              0.886
 Vibration    16          0.805              1.370              0.809
 Vibration    17          0.888              1.178              0.581
 Vibration    18          0.895              1.161              0.565
 Vibration    19          0.927              1.093              0.502
 Vibration    20          0.936              1.076              0.487
 Vibration    21          0.974              1.002              0.426

 Optimization completed.
    -- Stationary point found.
 Normal termination of Gaussian 16 at Mon Jul 12 14:05:07 2021.

 ----------------------------------------------------------------------
 #p b3lyp/6-31G(d) scrf=(iefpcm,read,solvent=n-octanol) geom=allcheck g
 uess=read
 ----------------------------------------------------------------------

 Structure from the checkpoint file:  "SET_328_BBB304_conf1.geo_210_060.chk"
 -----------------------------------------
 SET_328_BBB304_conf1.geo_210_060 geometry
 -----------------------------------------
 Charge =  1 Multiplicity = 1

 SCF Done:  E(RB3LYP) =  -741.199911949     A.U. after    3 cycles
 Normal termination of Gaussian 16 at Mon Jul 12 14:05:55 2021.

 -----------------------------
 #p B3LYP/6-31G* geom=allcheck
 -----------------------------

 Structure from the checkpoint file:  "SET_328_BBB304_conf1.geo_210_060.chk"
 -----------------------------------------
 SET_328_BBB304_conf1.geo_210_060 geometry
 -----------------------------------------
 Charge =  1 Multiplicity = 1

 SCF Done:  E(RB3LYP) =  -741.103514688     A.U. after   14 cycles
 Normal termination of Gaussian 16 at Mon Jul 12 14:07:28 2021.
 Gaussian 16:  ES64L-G16RevA.03 25-Dec-2016

 --------------------------------------------------------
 #p mp2/aug-cc-pVDZ scf=tight maxdisk=180GB geom=allcheck
 --------------------------------------------------------

 Structure from the checkpoint file:  "SET_328_BBB304_conf1.geo_210_060.chk"
 -----------------------------------------
 SET_328_BBB304_conf1.geo_210_060 geometry
 -----------------------------------------
 Charge =  1 Multiplicity = 1

                         Standard orientation:
 ---------------------------------------------------------------------
 Center     Atomic      Atomic             Coordinates (Angstroms)
 Number     Number       Type             X           Y           Z
 ---------------------------------------------------------------------
      1          7           0       -4.646685   -0.896299    0.134441
      2          1           0       -4.951198   -1.845522    0.313284
      3          1           0       -5.363537   -0.189862    0.015484
      4          6           0       -3.354268   -0.612350    0.041179
      5          6           0       -2.331416   -1.583166    0.189700
      6          6           0       -1.035033   -1.172325    0.079063
      7          1           0       -0.196992   -1.852401    0.152486
      8          1           0       -2.574611   -2.618348    0.373495
      9          7           0       -2.974152    0.668409   -0.210916
     10          6           0       -1.655282    1.115156   -0.320606
     11          8           0       -1.374750    2.275086   -0.546811
     12          7           0       -0.696452    0.119808   -0.148642
     13          6           0        0.733416    0.563235   -0.279822
     14          8           0        1.542727   -0.571668   -0.420946
     15          1           0        0.757216    1.162868   -1.191183
     16          6           0        1.226711    1.338784    0.953195
     17          1           0        0.632656    1.053182    1.825992
     18          1           0        1.133078    2.415181    0.815135
     19          6           0        2.670554    0.846345    1.089776
     20          1           0        3.049497    0.921770    2.111481
     21          1           0        3.340771    1.394276    0.423264
     22          6           0        2.585261   -0.598337    0.604227
     23          1           0        2.270720   -1.281423    1.404106
     24          6           0        3.844540   -1.136312   -0.061970
     25          1           0        3.656544   -2.156659   -0.421635
     26          1           0        4.644042   -1.187248    0.681919
     27          8           0        4.305158   -0.296353   -1.104084
     28          1           0        3.606449   -0.280388   -1.778562
     29          1           0       -3.675601    1.398433   -0.343180
 ---------------------------------------------------------------------

 SCF Done:  E(RHF) =  -736.827912659     A.U. after   14 cycles
 E2 =    -0.2336974893D+01 EUMP2 =    -0.73916488755181D+03

 The electronic state is 1-A.
 Alpha  occ. eigenvalues --  -20.71292 -20.70773 -20.66301 -15.82007 -15.80067
 Alpha  occ. eigenvalues --  -15.79961 -11.57876 -11.57274 -11.50121 -11.47639
 Alpha  occ. eigenvalues --  -11.41437 -11.40958 -11.38385 -11.35918 -11.34399
 Alpha  occ. eigenvalues --   -1.59372  -1.53957  -1.51100  -1.46008  -1.44866
 Alpha  occ. eigenvalues --   -1.39985  -1.25233  -1.19201  -1.15932  -1.10493
 Alpha  occ. eigenvalues --   -1.08187  -1.02892  -0.96983  -0.95757  -0.94140
 Alpha  occ. eigenvalues --   -0.91805  -0.89143  -0.86732  -0.85994  -0.83492
 Alpha  occ. eigenvalues --   -0.81636  -0.80359  -0.79363  -0.76910  -0.76132
 Alpha  occ. eigenvalues --   -0.74814  -0.73812  -0.72570  -0.70911  -0.67995
 Alpha  occ. eigenvalues --   -0.67110  -0.63637  -0.63516  -0.62334  -0.61481
 Alpha  occ. eigenvalues --   -0.61403  -0.60607  -0.59395  -0.56436  -0.54037
 Alpha  occ. eigenvalues --   -0.50968
 Alpha virt. eigenvalues --   -0.08703  -0.08600  -0.06633  -0.05738  -0.04582
 Alpha virt. eigenvalues --   -0.04138  -0.03663  -0.02710  -0.02467  -0.02149
 Alpha virt. eigenvalues --   -0.01672  -0.01241  -0.00769  -0.00343   0.00393

 Mulliken charges:
               1
     1  N   -0.280910
     2  H    0.046844
     3  H   -0.016063
     4  C    0.703400
     5  C    1.541585
     6  C    0.407463
     7  H   -0.471566
     8  H   -0.498268
     9  N   -0.595276
    10  C    0.842328
    11  O   -0.705868
    12  N   -0.354077
    13  C    1.098971
    14  O   -1.270207
    15  H   -0.362552
    16  C    0.620368
    17  H   -0.224694
    18  H   -0.136810
    19  C    0.587940
    20  H   -0.081529
    21  H   -0.132224
    22  C   -0.012412
    23  H   -0.297981
    24  C    1.347337
    25  H   -0.068143
    26  H   -0.123221
    27  O   -0.698665
    28  H    0.197135
    29  H   -0.062907
 Sum of Mulliken charges =   1.00000

 Dipole moment (field-independent basis, Debye):
    X=            -12.0805    Y=             -4.2301    Z=              2.1714  Tot=             12.9825
 Quadrupole moment (field-independent basis, Debye-Ang):
   XX=            -22.5924   YY=            -79.0733   ZZ=            -84.5692
   XY=              7.9776   XZ=              5.3467   YZ=             -1.0699

 Normal termination of Gaussian 16 at Mon Jul 12 14:32:53 2021.
