 Gaussian 16, Revision A.03,

 ---------------------------------------------------------------
 #p b3lyp/6-31G(d) opt freq scrf=(iefpcm,read,solvent=n-octanol)
 ---------------------------------------------------------------

 ----------------------------------------
 SET_328_BBB87_conf1.geo_285_285 geometry
 ----------------------------------------
 Symbolic Z-matrix:
 Charge =  1 Multiplicity = 1

 SCF Done:  E(RB3LYP) =  -703.482279154     A.U. after   13 cycles
 SCF Done:  E(RB3LYP) =  -703.502037464     A.U. after   12 cycles
 SCF Done:  E(RB3LYP) =  -703.504354280     A.U. after   11 cycles
 SCF Done:  E(RB3LYP) =  -703.505341519     A.U. after   11 cycles
 SCF Done:  E(RB3LYP) =  -703.505658202     A.U. after   11 cycles
 SCF Done:  E(RB3LYP) =  -703.506408071     A.U. after   12 cycles
 SCF Done:  E(RB3LYP) =  -703.505675920     A.U. after   13 cycles
 SCF Done:  E(RB3LYP) =  -703.506689003     A.U. after   10 cycles
 SCF Done:  E(RB3LYP) =  -703.506613921     A.U. after   12 cycles
 SCF Done:  E(RB3LYP) =  -703.507332483     A.U. after   11 cycles
 SCF Done:  E(RB3LYP) =  -703.511219359     A.U. after   10 cycles
 SCF Done:  E(RB3LYP) =  -703.511203457     A.U. after   10 cycles
 SCF Done:  E(RB3LYP) =  -703.511240004     A.U. after   10 cycles
 SCF Done:  E(RB3LYP) =  -703.511264007     A.U. after    9 cycles
 SCF Done:  E(RB3LYP) =  -703.511269184     A.U. after    9 cycles
 SCF Done:  E(RB3LYP) =  -703.511274429     A.U. after    8 cycles
 Optimization completed.
    -- Stationary point found.
 Normal termination of Gaussian 16 at Mon Jul 12 13:09:30 2021.

 --------------------------------------------------------------------
 #P Geom=AllCheck Guess=TCheck SCRF=Check GenChk RB3LYP/6-31G(d) Freq
 --------------------------------------------------------------------

 Structure from the checkpoint file:  "SET_328_BBB87_conf1.geo_285_285.chk"
 ----------------------------------------
 SET_328_BBB87_conf1.geo_285_285 geometry
 ----------------------------------------
 Charge =  1 Multiplicity = 1

 SCF Done:  E(RB3LYP) =  -703.511274429     A.U. after    1 cycles

  Exact polarizability: 117.133   0.733 100.847  -3.153   1.456  54.823
 Approx polarizability: 145.652   6.881 140.896  -4.883   2.226  70.578

                      1                      2                      3
                      A                      A                      A
 Frequencies --     99.1261               194.8591               201.6804
 Red. masses --      4.3389                 2.9204                 3.1784
 Frc consts  --      0.0251                 0.0653                 0.0762
 IR Inten    --     14.1636                 1.9568                61.6792

                      4                      5                      6
                      A                      A                      A
 Frequencies --    271.2160               320.0670               452.4013
 Red. masses --      4.4798                 2.7323                 1.6595
 Frc consts  --      0.1941                 0.1649                 0.2001
 IR Inten    --     29.4368                18.1482                 4.0644

                      7                      8                      9
                      A                      A                      A
 Frequencies --    476.4901               507.8064               586.8096
 Red. masses --      1.3120                 4.4977                 5.1489
 Frc consts  --      0.1755                 0.6833                 1.0446
 IR Inten    --      3.6255                 2.9088                 2.9093

                     10                     11                     12
                      A                      A                      A
 Frequencies --    625.4273               711.3847               745.3673
 Red. masses --      4.7325                 2.9303                 1.3014
 Frc consts  --      1.0907                 0.8737                 0.4260
 IR Inten    --     11.3147                 8.2258                41.6675

                     13                     14                     15
                      A                      A                      A
 Frequencies --    768.8648               866.6040               890.1561
 Red. masses --      7.7085                 2.5225                 4.0461
 Frc consts  --      2.6848                 1.1161                 1.8890
 IR Inten    --      8.8696                 4.8090                14.2416

                     16                     17                     18
                      A                      A                      A
 Frequencies --    904.6022               910.7294               974.1917
 Red. masses --      1.3118                 1.6558                 1.4700
 Frc consts  --      0.6325                 0.8092                 0.8220
 IR Inten    --      2.5466                60.9412                 8.3455

                     19                     20                     21
                      A                      A                      A
 Frequencies --   1043.3978              1094.2972              1107.8633
 Red. masses --      3.0881                 1.5488                 1.4236
 Frc consts  --      1.9808                 1.0927                 1.0295
 IR Inten    --      6.0024                88.8052               103.9385

                     22                     23                     24
                      A                      A                      A
 Frequencies --   1153.9244              1173.1772              1218.9353
 Red. masses --      1.3568                 2.0958                 1.8563
 Frc consts  --      1.0644                 1.6996                 1.6250
 IR Inten    --     24.1278                25.4756                 6.6246

                     25                     26                     27
                      A                      A                      A
 Frequencies --   1309.7286              1356.3565              1372.2310
 Red. masses --      1.2876                 2.0057                 1.3405
 Frc consts  --      1.3013                 2.1740                 1.4872
 IR Inten    --     34.9560                 1.3286                37.4239

                     28                     29                     30
                      A                      A                      A
 Frequencies --   1407.6525              1438.7910              1491.4359
 Red. masses --      1.4501                 1.4013                 1.9745
 Frc consts  --      1.6930                 1.7091                 2.5878
 IR Inten    --     20.6372                19.2092                43.4014

                     31                     32                     33
                      A                      A                      A
 Frequencies --   1504.8484              1521.8705              1552.5623
 Red. masses --      1.7342                 1.1120                 1.1936
 Frc consts  --      2.3139                 1.5175                 1.6951
 IR Inten    --      0.7368                 9.6943               352.7979

                     34                     35                     36
                      A                      A                      A
 Frequencies --   1570.8289              1670.6323              1699.7329
 Red. masses --      4.5074                 1.0392                 1.0416
 Frc consts  --      6.5529                 1.7090                 1.7730
 IR Inten    --      6.4898                41.2808                75.6734

                     37                     38                     39
                      A                      A                      A
 Frequencies --   3072.6858              3135.5804              3144.8608
 Red. masses --      1.0692                 1.0875                 1.0670
 Frc consts  --      5.9475                 6.2998                 6.2175
 IR Inten    --     10.1786                 2.4381                27.8370

                     40                     41                     42
                      A                      A                      A
 Frequencies --   3199.3738              3220.9496              3264.0399
 Red. masses --      1.1093                 1.0681                 1.0925
 Frc consts  --      6.6898                 6.5286                 6.8575
 IR Inten    --     54.7337               431.9903                 2.7597

                     43                     44                     45
                      A                      A                      A
 Frequencies --   3313.6882              3427.2939              3492.0872
 Red. masses --      1.0984                 1.0651                 1.0906
 Frc consts  --      7.1059                 7.3713                 7.8362
 IR Inten    --      3.7700               214.7485               204.9819

 - Thermochemistry -
 -------------------
 Temperature   298.150 Kelvin.  Pressure   1.00000 Atm.
 Atom     1 has atomic number  7 and mass  14.00307

 Molecular mass:   129.04865 amu.
 Principal axes and moments of inertia in atomic units:
                           1         2         3
     Eigenvalues --   483.392801543.176341959.25382
           X            0.99983  -0.01818  -0.00089
           Y            0.01818   0.99983   0.00056
           Z            0.00088  -0.00058   1.00000
 This molecule is an asymmetric top.
 Rotational symmetry number  1.
 Warning -- assumption of classical behavior for rotation
           may cause significant error
 Rotational temperatures (Kelvin)      0.17918     0.05613     0.04421
 Rotational constants (GHZ):           3.73349     1.16950     0.92114
 Zero-point vibrational energy     385596.0 (Joules/Mol)
                                   92.15964 (Kcal/Mol)
 Warning -- explicit consideration of   9 degrees of freedom as
           vibrations may cause significant error
 Vibrational temperatures:    142.62   280.36   290.17   390.22   460.51
          (Kelvin)            650.90   685.56   730.62   844.29   899.85
                             1023.52  1072.42  1106.22  1246.85  1280.74
                             1301.52  1310.34  1401.64  1501.22  1574.45
                             1593.97  1660.24  1687.94  1753.78  1884.41
                             1951.49  1974.33  2025.30  2070.10  2145.84
                             2165.14  2189.63  2233.79  2260.07  2403.67
                             2445.54  4420.91  4511.40  4524.75  4603.19
                             4634.23  4696.23  4767.66  4931.11  5024.33

 Zero-point correction=                           0.146866 (Hartree/Particle)
 Thermal correction to Energy=                    0.154208
 Thermal correction to Enthalpy=                  0.155153
 Thermal correction to Gibbs Free Energy=         0.114810
 Sum of electronic and zero-point Energies=           -703.364409
 Sum of electronic and thermal Energies=              -703.357066
 Sum of electronic and thermal Enthalpies=            -703.356122
 Sum of electronic and thermal Free Energies=         -703.396465

                     E (Thermal)             CV                S
                      KCal/Mol        Cal/Mol-Kelvin    Cal/Mol-Kelvin
 Total                   96.767             28.129             84.909
 Electronic               0.000              0.000              0.000
 Translational            0.889              2.981             40.478
 Rotational               0.889              2.981             28.771
 Vibrational             94.990             22.167             15.660
 Vibration     1          0.604              1.950              3.471
 Vibration     2          0.636              1.847              2.181
 Vibration     3          0.639              1.838              2.118
 Vibration     4          0.675              1.726              1.588
 Vibration     5          0.706              1.635              1.310
 Vibration     6          0.811              1.356              0.789
 Vibration     7          0.833              1.302              0.720
 Vibration     8          0.863              1.233              0.639
 Vibration     9          0.944              1.060              0.473

                           ! Non-Optimized Parameters !
 Normal termination of Gaussian 16 at Mon Jul 12 13:14:00 2021.

 ----------------------------------------------------------------------
 #p b3lyp/6-31G(d) scrf=(iefpcm,read,solvent=n-octanol) geom=allcheck g
 uess=read
 ----------------------------------------------------------------------

 Structure from the checkpoint file:  "SET_328_BBB87_conf1.geo_285_285.chk"
 ----------------------------------------
 SET_328_BBB87_conf1.geo_285_285 geometry
 ----------------------------------------
 Charge =  1 Multiplicity = 1

 SCF Done:  E(RB3LYP) =  -703.514000587     A.U. after    2 cycles
 Normal termination of Gaussian 16 at Mon Jul 12 13:14:15 2021.

 -----------------------------
 #p B3LYP/6-31G* geom=allcheck
 -----------------------------

 Structure from the checkpoint file:  "SET_328_BBB87_conf1.geo_285_285.chk"
 ----------------------------------------
 SET_328_BBB87_conf1.geo_285_285 geometry
 ----------------------------------------
 Charge =  1 Multiplicity = 1

 SCF Done:  E(RB3LYP) =  -703.410495149     A.U. after   15 cycles
 Normal termination of Gaussian 16 at Mon Jul 12 13:14:44 2021.
 Gaussian 16:  ES64L-G16RevA.03 25-Dec-2016

 --------------------------------------------------------
 #p mp2/aug-cc-pVDZ scf=tight maxdisk=180GB geom=allcheck
 --------------------------------------------------------

 Structure from the checkpoint file:  "SET_328_BBB87_conf1.geo_285_285.chk"
 ----------------------------------------
 SET_328_BBB87_conf1.geo_285_285 geometry
 ----------------------------------------
 Charge =  1 Multiplicity = 1

                         Standard orientation:
 ---------------------------------------------------------------------
 Center     Atomic      Atomic             Coordinates (Angstroms)
 Number     Number       Type             X           Y           Z
 ---------------------------------------------------------------------
      1          7           0        2.706332    0.803318   -0.179092
      2          1           0        3.451963    1.286414    0.336550
      3          1           0        1.858553    1.405589   -0.187178
      4          6           0        2.344909   -0.505830    0.455639
      5          1           0        2.142600   -0.298032    1.505349
      6          1           0        3.213431   -1.158297    0.387310
      7          6           0        1.133304   -1.143383   -0.219500
      8          1           0        0.975919   -2.122497    0.237748
      9          1           0        1.349491   -1.330996   -1.278323
     10          6           0       -0.107023   -0.302626   -0.090749
     11          7           0       -0.084514    1.004961   -0.046531
     12          6           0       -1.352997    1.531972    0.052810
     13          1           0       -1.478828    2.605219    0.102089
     14          6           0       -2.363712    0.619201    0.081294
     15          1           0       -3.425774    0.789980    0.154600
     16         16           0       -1.712257   -0.982804   -0.012749
     17          1           0        3.029151    0.693526   -1.151767
 ---------------------------------------------------------------------

 SCF Done:  E(RHF) =  -700.831903742     A.U. after   16 cycles
 E2 =    -0.1192847798D+01 EUMP2 =    -0.70202475154085D+03

 The electronic state is 1-A.
 Alpha  occ. eigenvalues --  -92.13050 -15.87297 -15.72804 -11.47898 -11.46807
 Alpha  occ. eigenvalues --  -11.42705 -11.40531 -11.40062  -9.13244  -6.81383
 Alpha  occ. eigenvalues --   -6.81293  -6.81119  -1.49034  -1.42821  -1.24163
 Alpha  occ. eigenvalues --   -1.20076  -1.13748  -1.05267  -0.95575  -0.94423
 Alpha  occ. eigenvalues --   -0.92896  -0.87879  -0.83858  -0.82082  -0.77680
 Alpha  occ. eigenvalues --   -0.74859  -0.73073  -0.70016  -0.68416  -0.67794
 Alpha  occ. eigenvalues --   -0.63412  -0.57986  -0.52623  -0.46784
 Alpha virt. eigenvalues --   -0.10011  -0.07220  -0.06863  -0.05753  -0.04004
 Alpha virt. eigenvalues --   -0.03761  -0.03607  -0.03380  -0.02591  -0.01559
 Alpha virt. eigenvalues --   -0.01406  -0.00049   0.00043   0.01121   0.01709

 Mulliken charges:
               1
     1  N   -0.371130
     2  H    0.168420
     3  H    0.249079
     4  C    0.915317
     5  H   -0.140712
     6  H   -0.099678
     7  C    0.163286
     8  H    0.050567
     9  H    0.027498
    10  C   -0.140691
    11  N   -0.659360
    12  C    0.670076
    13  H   -0.260244
    14  C    0.141227
    15  H   -0.333713
    16  S    0.383151
    17  H    0.236907
 Sum of Mulliken charges =   1.00000

 Dipole moment (field-independent basis, Debye):
    X=              8.6777    Y=              1.4150    Z=             -0.3800  Tot=              8.8005
 Quadrupole moment (field-independent basis, Debye-Ang):
   XX=            -11.2904   YY=            -44.4167   ZZ=            -53.1534
   XY=              3.0648   XZ=             -2.0135   YZ=             -0.2322

 Normal termination of Gaussian 16 at Mon Jul 12 13:17:35 2021.
