 Gaussian 16, Revision A.03,

 ---------------------------------------------------------------
 #p b3lyp/6-31G(d) opt freq scrf=(iefpcm,read,solvent=n-octanol)
 ---------------------------------------------------------------

 -----------------------------------------
 SET_328_BBB299_conf1.geo_165_180 geometry
 -----------------------------------------
 Symbolic Z-matrix:
 Charge = -1 Multiplicity = 1

 SCF Done:  E(RB3LYP) =  -495.532210571     A.U. after   14 cycles
 SCF Done:  E(RB3LYP) =  -495.561820081     A.U. after   12 cycles
 SCF Done:  E(RB3LYP) =  -495.568408150     A.U. after   12 cycles
 SCF Done:  E(RB3LYP) =  -495.556149357     A.U. after   13 cycles
 SCF Done:  E(RB3LYP) =  -495.569137098     A.U. after   11 cycles
 SCF Done:  E(RB3LYP) =  -495.569235718     A.U. after   10 cycles
 SCF Done:  E(RB3LYP) =  -495.569453005     A.U. after   11 cycles
 SCF Done:  E(RB3LYP) =  -495.569468990     A.U. after   10 cycles
 SCF Done:  E(RB3LYP) =  -495.569601873     A.U. after   10 cycles
 SCF Done:  E(RB3LYP) =  -495.569568874     A.U. after   10 cycles
 SCF Done:  E(RB3LYP) =  -495.569587849     A.U. after    9 cycles
 SCF Done:  E(RB3LYP) =  -495.569601173     A.U. after    9 cycles
 SCF Done:  E(RB3LYP) =  -495.569601866     A.U. after    8 cycles
 SCF Done:  E(RB3LYP) =  -495.569587303     A.U. after   10 cycles
 Optimization completed.
    -- Stationary point found.
 Normal termination of Gaussian 16 at Mon Jul 12 12:56:55 2021.

 --------------------------------------------------------------------
 #P Geom=AllCheck Guess=TCheck SCRF=Check GenChk RB3LYP/6-31G(d) Freq
 --------------------------------------------------------------------

 Structure from the checkpoint file:  "SET_328_BBB299_conf1.geo_165_180.chk"
 -----------------------------------------
 SET_328_BBB299_conf1.geo_165_180 geometry
 -----------------------------------------
 Charge = -1 Multiplicity = 1

 SCF Done:  E(RB3LYP) =  -495.569587303     A.U. after    1 cycles

  Exact polarizability: 129.134   1.925 122.813   0.684  -0.723  37.720
 Approx polarizability: 161.293   5.693 170.652   1.180  -3.506  50.831

                      1                      2                      3
                      A                      A                      A
 Frequencies --     74.4063               143.6854               201.9310
 Red. masses --     11.6878                 5.5087                 8.3710
 Frc consts  --      0.0381                 0.0670                 0.2011
 IR Inten    --      0.9232                 0.5221                 2.1596

                      4                      5                      6
                      A                      A                      A
 Frequencies --    248.8725               353.2254               356.1209
 Red. masses --      4.5227                 4.2064                 1.4139
 Frc consts  --      0.1650                 0.3092                 0.1056
 IR Inten    --      1.7953                35.2456               110.6713

                      7                      8                      9
                      A                      A                      A
 Frequencies --    391.0085               456.6045               532.3436
 Red. masses --      5.0430                 4.2574                 4.1091
 Frc consts  --      0.4543                 0.5230                 0.6861
 IR Inten    --     11.2057                11.4258                11.4990

                     10                     11                     12
                      A                      A                      A
 Frequencies --    557.9306               576.8573               664.7951
 Red. masses --      5.2650                 6.1039                 6.8458
 Frc consts  --      0.9656                 1.1967                 1.7826
 IR Inten    --      4.2928                10.2971                26.4875

                     13                     14                     15
                      A                      A                      A
 Frequencies --    704.6422               768.2890               802.7718
 Red. masses --      4.6384                 1.4213                 5.9951
 Frc consts  --      1.3569                 0.4943                 2.2763
 IR Inten    --     16.7974                70.5641                53.8417

                     16                     17                     18
                      A                      A                      A
 Frequencies --    813.3573               858.8503               860.2290
 Red. masses --      4.2446                 2.5191                 2.6697
 Frc consts  --      1.6544                 1.0948                 1.1640
 IR Inten    --     22.4766                29.0032                36.1362

                     19                     20                     21
                      A                      A                      A
 Frequencies --    955.4677               990.1243              1074.0543
 Red. masses --      1.2958                 1.2534                 2.3450
 Frc consts  --      0.6970                 0.7240                 1.5939
 IR Inten    --      0.8399                 2.6388                 7.7383

                     22                     23                     24
                      A                      A                      A
 Frequencies --   1102.0813              1168.6354              1182.2343
 Red. masses --      2.8373                 2.0940                 1.0840
 Frc consts  --      2.0304                 1.6850                 0.8926
 IR Inten    --     53.0736                29.4721                19.6162

                     25                     26                     27
                      A                      A                      A
 Frequencies --   1203.9397              1289.6280              1329.2086
 Red. masses --      1.3415                 3.3118                 1.7662
 Frc consts  --      1.1456                 3.2452                 1.8386
 IR Inten    --     95.5182                78.4094               117.4926

                     28                     29                     30
                      A                      A                      A
 Frequencies --   1374.1259              1393.5192              1487.3658
 Red. masses --      4.2127                 6.3220                 2.4542
 Frc consts  --      4.6866                 7.2332                 3.1988
 IR Inten    --    212.0974               426.3930                63.8734

                     31                     32                     33
                      A                      A                      A
 Frequencies --   1541.2145              1639.6129              1653.8014
 Red. masses --      2.4460                 6.1761                 6.0996
 Frc consts  --      3.4233                 9.7824                 9.8293
 IR Inten    --     19.4989                40.0234                36.4342

                     34                     35                     36
                      A                      A                      A
 Frequencies --   1684.2229              3168.7131              3195.2861
 Red. masses --     10.9115                 1.0881                 1.0877
 Frc consts  --     18.2361                 6.4372                 6.5432
 IR Inten    --    711.0904                30.3856                21.4584

                     37                     38                     39
                      A                      A                      A
 Frequencies --   3211.9280              3240.2598              3755.1997
 Red. masses --      1.0950                 1.0904                 1.0657
 Frc consts  --      6.6559                 6.7454                 8.8542
 IR Inten    --     45.9424                12.6508                64.8548

 - Thermochemistry -
 -------------------
 Temperature   298.150 Kelvin.  Pressure   1.00000 Atm.
 Atom     1 has atomic number  8 and mass  15.99491

 Molecular mass:   137.02387 amu.
 Principal axes and moments of inertia in atomic units:
                           1         2         3
     Eigenvalues --   781.743301491.887612226.20523
           X            1.00000   0.00270   0.00077
           Y           -0.00271   0.99997   0.00736
           Z           -0.00075  -0.00736   0.99997
 This molecule is an asymmetric top.
 Rotational symmetry number  1.
 Warning -- assumption of classical behavior for rotation
           may cause significant error
 Rotational temperatures (Kelvin)      0.11080     0.05806     0.03891
 Rotational constants (GHZ):           2.30861     1.20970     0.81068
 Zero-point vibrational energy     281161.6 (Joules/Mol)
                                   67.19923 (Kcal/Mol)
 Warning -- explicit consideration of  11 degrees of freedom as
           vibrations may cause significant error
 Vibrational temperatures:    107.05   206.73   290.53   358.07   508.21
          (Kelvin)            512.38   562.57   656.95   765.92   802.74
                              829.97   956.49  1013.82  1105.40  1155.01
                             1170.24  1235.69  1237.68  1374.70  1424.57
                             1545.32  1585.65  1681.41  1700.97  1732.20
                             1855.49  1912.43  1977.06  2004.96  2139.99
                             2217.46  2359.04  2379.45  2423.22  4559.07
                             4597.30  4621.25  4662.01  5402.89

 Zero-point correction=                           0.107089 (Hartree/Particle)
 Thermal correction to Energy=                    0.115101
 Thermal correction to Enthalpy=                  0.116045
 Thermal correction to Gibbs Free Energy=         0.073984
 Sum of electronic and zero-point Energies=           -495.462499
 Sum of electronic and thermal Energies=              -495.454486
 Sum of electronic and thermal Enthalpies=            -495.453542
 Sum of electronic and thermal Free Energies=         -495.495603

                     E (Thermal)             CV                S
                      KCal/Mol        Cal/Mol-Kelvin    Cal/Mol-Kelvin
 Total                   72.227             30.427             88.524
 Electronic               0.000              0.000              0.000
 Translational            0.889              2.981             40.657
 Rotational               0.889              2.981             29.342
 Vibrational             70.449             24.465             18.525
 Vibration     1          0.599              1.966              4.033
 Vibration     2          0.616              1.909              2.754
 Vibration     3          0.639              1.837              2.115
 Vibration     4          0.662              1.765              1.739
 Vibration     5          0.729              1.569              1.152
 Vibration     6          0.732              1.563              1.139
 Vibration     7          0.759              1.489              0.996
 Vibration     8          0.815              1.346              0.776
 Vibration     9          0.887              1.178              0.582
 Vibration    10          0.913              1.122              0.528
 Vibration    11          0.933              1.081              0.491

 Optimization completed.
    -- Stationary point found.
 Normal termination of Gaussian 16 at Mon Jul 12 13:02:08 2021.

 ----------------------------------------------------------------------
 #p b3lyp/6-31G(d) scrf=(iefpcm,read,solvent=n-octanol) geom=allcheck g
 uess=read
 ----------------------------------------------------------------------

 Structure from the checkpoint file:  "SET_328_BBB299_conf1.geo_165_180.chk"
 -----------------------------------------
 SET_328_BBB299_conf1.geo_165_180 geometry
 -----------------------------------------
 Charge = -1 Multiplicity = 1

 SCF Done:  E(RB3LYP) =  -495.569587303     A.U. after    1 cycles
 Normal termination of Gaussian 16 at Mon Jul 12 13:02:18 2021.

 -----------------------------
 #p B3LYP/6-31G* geom=allcheck
 -----------------------------

 Structure from the checkpoint file:  "SET_328_BBB299_conf1.geo_165_180.chk"
 -----------------------------------------
 SET_328_BBB299_conf1.geo_165_180 geometry
 -----------------------------------------
 Charge = -1 Multiplicity = 1

 SCF Done:  E(RB3LYP) =  -495.455197389     A.U. after   16 cycles
 Normal termination of Gaussian 16 at Mon Jul 12 13:02:51 2021.
 Gaussian 16:  ES64L-G16RevA.03 25-Dec-2016

 --------------------------------------------------------
 #p mp2/aug-cc-pVDZ scf=tight maxdisk=180GB geom=allcheck
 --------------------------------------------------------

 Structure from the checkpoint file:  "SET_328_BBB299_conf1.geo_165_180.chk"
 -----------------------------------------
 SET_328_BBB299_conf1.geo_165_180 geometry
 -----------------------------------------
 Charge = -1 Multiplicity = 1

                         Standard orientation:
 ---------------------------------------------------------------------
 Center     Atomic      Atomic             Coordinates (Angstroms)
 Number     Number       Type             X           Y           Z
 ---------------------------------------------------------------------
      1          8           0        2.321097   -1.371103    0.382959
      2          6           0        1.811753   -0.286109   -0.018552
      3          8           0        2.433279    0.715310   -0.460377
      4          6           0        0.278031   -0.227112    0.004240
      5          6           0       -0.486073    0.957066    0.064001
      6          8           0        0.140104    2.166000    0.178740
      7          1           0       -0.542310    2.850479    0.253633
      8          6           0       -1.887125    0.896034    0.037488
      9          1           0       -2.458276    1.820611    0.091046
     10          6           0       -2.548768   -0.325347   -0.054721
     11          1           0       -3.634074   -0.345871   -0.080439
     12          6           0       -1.811915   -1.508837   -0.105228
     13          1           0       -2.313068   -2.469200   -0.171236
     14          6           0       -0.421051   -1.438917   -0.064476
     15          1           0        0.182776   -2.338341   -0.080095
 ---------------------------------------------------------------------

 SCF Done:  E(RHF) =  -492.674598298     A.U. after   16 cycles
 E2 =    -0.1541704330D+01 EUMP2 =    -0.49421630262839D+03

 The electronic state is 1-A.
 Alpha  occ. eigenvalues --  -20.47054 -20.30906 -20.30743 -11.18504 -11.16023
 Alpha  occ. eigenvalues --  -11.13199 -11.12060 -11.11270 -11.10994 -11.09820
 Alpha  occ. eigenvalues --   -1.27856  -1.17807  -1.07378  -1.02180  -0.89545
 Alpha  occ. eigenvalues --   -0.88007  -0.72034  -0.70685  -0.60585  -0.59088
 Alpha  occ. eigenvalues --   -0.53432  -0.51345  -0.47134  -0.46320  -0.45844
 Alpha  occ. eigenvalues --   -0.43343  -0.40418  -0.39296  -0.37322  -0.36728
 Alpha  occ. eigenvalues --   -0.34630  -0.22452  -0.21569  -0.20371  -0.19501
 Alpha  occ. eigenvalues --   -0.18453
 Alpha virt. eigenvalues --    0.10784   0.11534   0.12628   0.14776   0.15971
 Alpha virt. eigenvalues --    0.20717   0.21311   0.21554   0.21982   0.22483
 Alpha virt. eigenvalues --    0.22527   0.22828   0.23309   0.24137   0.24767

 Mulliken charges:
               1
     1  O   -0.971445
     2  C    0.801610
     3  O   -0.943914
     4  C    0.558667
     5  C    1.014580
     6  O   -0.925330
     7  H    0.166253
     8  C    0.573076
     9  H   -0.665248
    10  C    0.220441
    11  H   -0.451907
    12  C    0.271275
    13  H   -0.452155
    14  C    0.417916
    15  H   -0.613818
 Sum of Mulliken charges =  -1.00000

 Dipole moment (field-independent basis, Debye):
    X=            -11.1715    Y=              1.9264    Z=              0.2485  Tot=             11.3391
 Quadrupole moment (field-independent basis, Debye-Ang):
   XX=            -91.5246   YY=            -62.7164   ZZ=            -64.8493
   XY=             -0.6908   XZ=              0.4034   YZ=              3.9954

 Normal termination of Gaussian 16 at Mon Jul 12 13:05:56 2021.
