 Gaussian 16, Revision A.03,

 ---------------------------------------------------------------
 #p b3lyp/6-31G(d) opt freq scrf=(iefpcm,read,solvent=n-octanol)
 ---------------------------------------------------------------

 -----------------------------------------
 SET_328_BBB212_conf1.geo_225_060 geometry
 -----------------------------------------
 Symbolic Z-matrix:
 Charge = -1 Multiplicity = 1

 SCF Done:  E(RB3LYP) =  -731.151199456     A.U. after   13 cycles
 SCF Done:  E(RB3LYP) =  -731.178930000     A.U. after   12 cycles
 SCF Done:  E(RB3LYP) =  -731.188201434     A.U. after   12 cycles
 SCF Done:  E(RB3LYP) =  -731.189880017     A.U. after   11 cycles
 SCF Done:  E(RB3LYP) =  -731.190501022     A.U. after   10 cycles
 SCF Done:  E(RB3LYP) =  -731.190658030     A.U. after   10 cycles
 SCF Done:  E(RB3LYP) =  -731.190684524     A.U. after    9 cycles
 SCF Done:  E(RB3LYP) =  -731.190720092     A.U. after    9 cycles
 SCF Done:  E(RB3LYP) =  -731.190744952     A.U. after    9 cycles
 SCF Done:  E(RB3LYP) =  -731.190763477     A.U. after    8 cycles
 SCF Done:  E(RB3LYP) =  -731.190761808     A.U. after    7 cycles
 SCF Done:  E(RB3LYP) =  -731.190763163     A.U. after    7 cycles
 SCF Done:  E(RB3LYP) =  -731.190759230     A.U. after    8 cycles
 SCF Done:  E(RB3LYP) =  -731.190761680     A.U. after    8 cycles
 Optimization completed.
    -- Stationary point found.
 Normal termination of Gaussian 16 at Mon Jul 12 13:02:06 2021.

 --------------------------------------------------------------------
 #P Geom=AllCheck Guess=TCheck SCRF=Check GenChk RB3LYP/6-31G(d) Freq
 --------------------------------------------------------------------

 Structure from the checkpoint file:  "SET_328_BBB212_conf1.geo_225_060.chk"
 -----------------------------------------
 SET_328_BBB212_conf1.geo_225_060 geometry
 -----------------------------------------
 Charge = -1 Multiplicity = 1

 SCF Done:  E(RB3LYP) =  -731.190761680     A.U. after    1 cycles

  Exact polarizability: 266.686 -15.083 184.496  27.725  -2.686 163.978
 Approx polarizability: 318.318 -24.351 237.863  41.582  -4.361 219.703

 ******    1 imaginary frequencies (negative Signs) ******

                      1                      2                      3
                      A                      A                      A
 Frequencies --     -6.6197                43.0545                48.7903
 Red. masses --      3.7576                 7.6116                 3.6685
 Frc consts  --      0.0001                 0.0083                 0.0051
 IR Inten    --      3.0344                 8.9353                 0.0653

                      4                      5                      6
                      A                      A                      A
 Frequencies --     95.9521               150.3491               181.7097
 Red. masses --      4.7208                 5.5207                 4.2942
 Frc consts  --      0.0256                 0.0735                 0.0835
 IR Inten    --      1.0673                 1.9751                 0.3277

                      7                      8                      9
                      A                      A                      A
 Frequencies --    217.9403               263.9886               279.4631
 Red. masses --      2.7252                 3.0062                 2.8323
 Frc consts  --      0.0763                 0.1234                 0.1303
 IR Inten    --      1.3798                 0.2509                 3.6820

                     10                     11                     12
                      A                      A                      A
 Frequencies --    285.8596               310.6482               329.9652
 Red. masses --      2.0666                 1.2262                 1.8986
 Frc consts  --      0.0995                 0.0697                 0.1218
 IR Inten    --      2.6770                 0.4491                 0.8869

                     13                     14                     15
                      A                      A                      A
 Frequencies --    346.1441               349.1096               370.8286
 Red. masses --      2.7195                 1.1183                 3.8586
 Frc consts  --      0.1920                 0.0803                 0.3126
 IR Inten    --      5.3786               152.6923                 1.4716

                     16                     17                     18
                      A                      A                      A
 Frequencies --    413.1367               423.2335               432.4706
 Red. masses --      3.8334                 3.1419                 3.3888
 Frc consts  --      0.3855                 0.3316                 0.3734
 IR Inten    --      8.3735                 0.9427                 0.2499

                     19                     20                     21
                      A                      A                      A
 Frequencies --    446.0538               479.0780               491.3869
 Red. masses --      4.7651                 3.7540                 3.4896
 Frc consts  --      0.5586                 0.5076                 0.4964
 IR Inten    --      6.9438                 1.9300                 2.0513

                     22                     23                     24
                      A                      A                      A
 Frequencies --    541.9623               559.1869               572.3906
 Red. masses --      4.0133                 2.2893                 2.3667
 Frc consts  --      0.6945                 0.4218                 0.4569
 IR Inten    --     12.2790                36.9033                24.3174

                     25                     26                     27
                      A                      A                      A
 Frequencies --    648.4714               651.3617               656.7008
 Red. masses --      6.1091                 6.1397                 6.8040
 Frc consts  --      1.5136                 1.5348                 1.7288
 IR Inten    --      2.9792                 2.1431                 0.0758

                     28                     29                     30
                      A                      A                      A
 Frequencies --    736.5814               750.2770               765.3130
 Red. masses --      4.1709                 3.8502                 2.7172
 Frc consts  --      1.3333                 1.2769                 0.9377
 IR Inten    --      9.4699                 3.1348                19.7409

                     31                     32                     33
                      A                      A                      A
 Frequencies --    814.1746               821.6006               837.4948
 Red. masses --      1.2449                 1.2585                 1.7582
 Frc consts  --      0.4862                 0.5005                 0.7266
 IR Inten    --      0.6750                 2.6250                42.9995

                     34                     35                     36
                      A                      A                      A
 Frequencies --    841.0227               846.6154               852.1538
 Red. masses --      2.3091                 5.4203                 5.0745
 Frc consts  --      0.9623                 2.2890                 2.1711
 IR Inten    --     56.5994                16.1786                12.1157

                     37                     38                     39
                      A                      A                      A
 Frequencies --    925.9075               939.0861               941.8425
 Red. masses --      1.9001                 1.3032                 1.4251
 Frc consts  --      0.9598                 0.6771                 0.7448
 IR Inten    --      5.6096                 0.2013                 0.2226

                     40                     41                     42
                      A                      A                      A
 Frequencies --    943.7964               950.9631               959.3994
 Red. masses --      1.3225                 1.4865                 1.3159
 Frc consts  --      0.6941                 0.7921                 0.7136
 IR Inten    --      0.9129                 1.2882                 2.8054

                     43                     44                     45
                      A                      A                      A
 Frequencies --   1002.6567              1026.8267              1032.7772
 Red. masses --      2.8561                 1.5550                 2.0978
 Frc consts  --      1.6917                 0.9660                 1.3184
 IR Inten    --      6.4970                 2.3971                 8.0414

                     46                     47                     48
                      A                      A                      A
 Frequencies --   1100.4612              1121.8127              1130.6933
 Red. masses --      1.8922                 1.5985                 1.9871
 Frc consts  --      1.3501                 1.1852                 1.4968
 IR Inten    --     11.7742                11.1519                 8.4653

                     49                     50                     51
                      A                      A                      A
 Frequencies --   1137.0988              1169.9080              1199.3900
 Red. masses --      1.6602                 2.0213                 1.2528
 Frc consts  --      1.2647                 1.6300                 1.0619
 IR Inten    --     22.5613                10.3190               257.4775

                     52                     53                     54
                      A                      A                      A
 Frequencies --   1204.5006              1210.2562              1254.9580
 Red. masses --      1.1787                 1.3334                 3.3819
 Frc consts  --      1.0075                 1.1507                 3.1381
 IR Inten    --     43.9373                92.1189                 9.9197

                     55                     56                     57
                      A                      A                      A
 Frequencies --   1265.4216              1274.9507              1299.8794
 Red. masses --      3.6048                 2.7747                 3.3763
 Frc consts  --      3.4009                 2.6574                 3.3613
 IR Inten    --     48.6430                24.8397               140.0199

                     58                     59                     60
                      A                      A                      A
 Frequencies --   1341.8365              1343.2903              1380.9765
 Red. masses --      1.7833                 2.0491                 2.2337
 Frc consts  --      1.8918                 2.1784                 2.5099
 IR Inten    --     34.4129                26.0313                24.6062

                     61                     62                     63
                      A                      A                      A
 Frequencies --   1408.8575              1420.0456              1424.4342
 Red. masses --      1.2573                 2.7700                 1.3037
 Frc consts  --      1.4703                 3.2910                 1.5585
 IR Inten    --      9.5423               198.6755                28.3650

                     64                     65                     66
                      A                      A                      A
 Frequencies --   1468.6890              1473.6794              1508.9649
 Red. masses --      3.5042                 2.8432                 1.0577
 Frc consts  --      4.4535                 3.6381                 1.4190
 IR Inten    --     18.5216                40.2836                 4.5845

                     67                     68                     69
                      A                      A                      A
 Frequencies --   1519.0818              1525.0520              1530.4371
 Red. masses --      1.0749                 1.0640                 1.0688
 Frc consts  --      1.4614                 1.4580                 1.4749
 IR Inten    --      9.0643                 8.9097                13.5816

                     70                     71                     72
                      A                      A                      A
 Frequencies --   1556.0210              1558.7784              1572.7678
 Red. masses --      4.4921                 2.6034                 3.7120
 Frc consts  --      6.4081                 3.7271                 5.4098
 IR Inten    --    217.1110               118.1471               400.5948

                     73                     74                     75
                      A                      A                      A
 Frequencies --   1646.3662              1657.3479              1674.3284
 Red. masses --      5.7179                 5.8142                 6.0296
 Frc consts  --      9.1314                 9.4095                 9.9590
 IR Inten    --     33.3502               376.8133                48.4755

                     76                     77                     78
                      A                      A                      A
 Frequencies --   3057.8049              3063.3875              3125.6396
 Red. masses --      1.0353                 1.0367                 1.0999
 Frc consts  --      5.7036                 5.7321                 6.3311
 IR Inten    --     37.7727                56.5906                17.5146

                     79                     80                     81
                      A                      A                      A
 Frequencies --   3131.2199              3133.6857              3138.4042
 Red. masses --      1.1018                 1.1023                 1.0868
 Frc consts  --      6.3644                 6.3777                 6.3070
 IR Inten    --     92.8884                78.8441                60.9065

                     82                     83                     84
                      A                      A                      A
 Frequencies --   3149.3305              3152.3503              3178.8236
 Red. masses --      1.1016                 1.0867                 1.0908
 Frc consts  --      6.4373                 6.3625                 6.4940
 IR Inten    --     49.5228                47.3002               121.0937

                     85                     86                     87
                      A                      A                      A
 Frequencies --   3183.6703              3186.2703              3213.8114
 Red. masses --      1.0890                 1.0903                 1.0918
 Frc consts  --      6.5033                 6.5216                 6.6438
 IR Inten    --     33.0009                29.9160                16.3413

                     88                     89                     90
                      A                      A                      A
 Frequencies --   3218.9250              3234.1714              3750.3279
 Red. masses --      1.0866                 1.0932                 1.0662
 Frc consts  --      6.6332                 6.7373                 8.8350
 IR Inten    --     12.5806                30.5457               101.9189

 - Thermochemistry -
 -------------------
 Temperature   298.150 Kelvin.  Pressure   1.00000 Atm.
 Atom     1 has atomic number  6 and mass  12.00000

 Molecular mass:   227.10720 amu.
 Principal axes and moments of inertia in atomic units:
                           1         2         3
     Eigenvalues --  2040.908176973.844037863.21506
           X            0.99997   0.00699   0.00311
           Y           -0.00696   0.99994  -0.00847
           Z           -0.00316   0.00844   0.99996
 This molecule is an asymmetric top.
 Rotational symmetry number  1.
 Warning -- assumption of classical behavior for rotation
           may cause significant error
 Rotational temperatures (Kelvin)      0.04244     0.01242     0.01102
 Rotational constants (GHZ):           0.88428     0.25879     0.22952
    1 imaginary frequencies ignored.
 Zero-point vibrational energy     687110.1 (Joules/Mol)
                                  164.22325 (Kcal/Mol)
 Warning -- explicit consideration of  23 degrees of freedom as
           vibrations may cause significant error
 Vibrational temperatures:     61.95    70.20   138.05   216.32   261.44
          (Kelvin)            313.57   379.82   402.09   411.29   446.95
                              474.75   498.02   502.29   533.54   594.41
                              608.94   622.23   641.77   689.29   707.00
                              779.76   804.55   823.54   933.01   937.16
                              944.85  1059.78  1079.48  1101.11  1171.42
                             1182.10  1204.97  1210.04  1218.09  1226.06
                             1332.17  1351.14  1355.10  1357.91  1368.22
                             1380.36  1442.60  1477.37  1485.94  1583.32
                             1614.04  1626.82  1636.03  1683.24  1725.65
                             1733.01  1741.29  1805.60  1820.66  1834.37
                             1870.24  1930.60  1932.70  1986.92  2027.03
                             2043.13  2049.44  2113.12  2120.30  2171.06
                             2185.62  2194.21  2201.96  2238.77  2242.73
                             2262.86  2368.75  2384.55  2408.99  4399.50
                             4407.53  4497.10  4505.13  4508.67  4515.46
                             4531.18  4535.53  4573.62  4580.59  4584.33
                             4623.96  4631.32  4653.25  5395.89

 Zero-point correction=                           0.261706 (Hartree/Particle)
 Thermal correction to Energy=                    0.275876
 Thermal correction to Enthalpy=                  0.276821
 Thermal correction to Gibbs Free Energy=         0.220983
 Sum of electronic and zero-point Energies=           -730.929055
 Sum of electronic and thermal Energies=              -730.914885
 Sum of electronic and thermal Enthalpies=            -730.913941
 Sum of electronic and thermal Free Energies=         -730.969779

                     E (Thermal)             CV                S
                      KCal/Mol        Cal/Mol-Kelvin    Cal/Mol-Kelvin
 Total                  173.115             58.342            117.521
 Electronic               0.000              0.000              0.000
 Translational            0.889              2.981             42.163
 Rotational               0.889              2.981             33.081
 Vibrational            171.338             52.381             42.277
 Vibration     1          0.595              1.980              5.113
 Vibration     2          0.595              1.978              4.866
 Vibration     3          0.603              1.952              3.535
 Vibration     4          0.618              1.902              2.668
 Vibration     5          0.630              1.865              2.311
 Vibration     6          0.646              1.814              1.976
 Vibration     7          0.671              1.739              1.635
 Vibration     8          0.680              1.712              1.537
 Vibration     9          0.684              1.700              1.498
 Vibration    10          0.699              1.653              1.359
 Vibration    11          0.713              1.616              1.260
 Vibration    12          0.724              1.583              1.184
 Vibration    13          0.726              1.577              1.170
 Vibration    14          0.743              1.532              1.076
 Vibration    15          0.777              1.442              0.916
 Vibration    16          0.785              1.420              0.881
 Vibration    17          0.793              1.399              0.851
 Vibration    18          0.805              1.370              0.808
 Vibration    19          0.836              1.296              0.713
 Vibration    20          0.847              1.269              0.680
 Vibration    21          0.897              1.157              0.561
 Vibration    22          0.915              1.120              0.525
 Vibration    23          0.929              1.091              0.500

                           ! Non-Optimized Parameters !
 Normal termination of Gaussian 16 at Mon Jul 12 13:34:47 2021.

 ----------------------------------------------------------------------
 #p b3lyp/6-31G(d) scrf=(iefpcm,read,solvent=n-octanol) geom=allcheck g
 uess=read
 ----------------------------------------------------------------------

 Structure from the checkpoint file:  "SET_328_BBB212_conf1.geo_225_060.chk"
 -----------------------------------------
 SET_328_BBB212_conf1.geo_225_060 geometry
 -----------------------------------------
 Charge = -1 Multiplicity = 1

 SCF Done:  E(RB3LYP) =  -731.190761680     A.U. after    1 cycles
 Normal termination of Gaussian 16 at Mon Jul 12 13:35:33 2021.

 -----------------------------
 #p B3LYP/6-31G* geom=allcheck
 -----------------------------

 Structure from the checkpoint file:  "SET_328_BBB212_conf1.geo_225_060.chk"
 -----------------------------------------
 SET_328_BBB212_conf1.geo_225_060 geometry
 -----------------------------------------
 Charge = -1 Multiplicity = 1

 SCF Done:  E(RB3LYP) =  -731.091541255     A.U. after   19 cycles
 Normal termination of Gaussian 16 at Mon Jul 12 13:38:14 2021.
 Gaussian 16:  ES64L-G16RevA.03 25-Dec-2016

 --------------------------------------------------------
 #p mp2/aug-cc-pVDZ scf=tight maxdisk=180GB geom=allcheck
 --------------------------------------------------------

 Structure from the checkpoint file:  "SET_328_BBB212_conf1.geo_225_060.chk"
 -----------------------------------------
 SET_328_BBB212_conf1.geo_225_060 geometry
 -----------------------------------------
 Charge = -1 Multiplicity = 1

                         Standard orientation:
 ---------------------------------------------------------------------
 Center     Atomic      Atomic             Coordinates (Angstroms)
 Number     Number       Type             X           Y           Z
 ---------------------------------------------------------------------
      1          6           0       -0.025102    2.300968    1.301295
      2          1           0       -0.923847    2.924014    1.272959
      3          1           0        0.845621    2.960543    1.368825
      4          1           0       -0.062396    1.694954    2.211857
      5          6           0        0.045808    1.423305    0.032926
      6          6           0        0.103882    2.374366   -1.180601
      7          1           0       -0.744958    3.065736   -1.204393
      8          1           0        0.119372    1.816160   -2.119076
      9          1           0        1.019513    2.969607   -1.130575
     10          6           0       -1.226226    0.555133    0.000942
     11          6           0       -2.336051    0.845488   -0.803983
     12          6           0       -3.493505    0.067235   -0.770456
     13          6           0       -3.572749   -1.030248    0.086327
     14          8           0       -4.731134   -1.761184    0.080352
     15          1           0       -4.648201   -2.494970    0.710101
     16          6           0       -2.479600   -1.340315    0.902793
     17          6           0       -1.330192   -0.557104    0.848978
     18          1           0       -0.479541   -0.821331    1.468300
     19          1           0       -2.523474   -2.196613    1.571075
     20          1           0       -4.339766    0.301097   -1.405427
     21          1           0       -2.306092    1.693076   -1.478856
     22          6           0        1.301074    0.540590    0.019172
     23          6           0        1.520834   -0.354344   -1.046175
     24          1           0        0.764707   -0.432805   -1.827676
     25          6           0        2.658358   -1.141175   -1.134372
     26          1           0        2.786444   -1.819941   -1.974242
     27          6           0        3.706903   -1.105034   -0.149521
     28          8           0        4.765503   -1.828017   -0.231114
     29          6           0        3.456363   -0.188694    0.926734
     30          1           0        4.209992   -0.113781    1.708831
     31          6           0        2.306041    0.593172    0.997898
     32          1           0        2.192652    1.267793    1.842644
 ---------------------------------------------------------------------

 SCF Done:  E(RHF) =  -726.571386887     A.U. after   18 cycles
 E2 =    -0.2501333378D+01 EUMP2 =    -0.72907272026570D+03

 The electronic state is 1-A.
 Alpha  occ. eigenvalues --  -20.52119 -20.30395 -11.21753 -11.15003 -11.14903
 Alpha  occ. eigenvalues --  -11.14520 -11.14509 -11.14145 -11.13921 -11.12001
 Alpha  occ. eigenvalues --  -11.11994 -11.11649 -11.09099 -11.08945 -11.07126
 Alpha  occ. eigenvalues --  -11.05743 -11.05370  -1.32611  -1.11845  -1.06256
 Alpha  occ. eigenvalues --   -1.00402  -0.95085  -0.92787  -0.89429  -0.85274
 Alpha  occ. eigenvalues --   -0.82778  -0.81253  -0.75899  -0.73701  -0.68311
 Alpha  occ. eigenvalues --   -0.65996  -0.64549  -0.61771  -0.57807  -0.55587
 Alpha  occ. eigenvalues --   -0.52856  -0.51679  -0.50745  -0.49595  -0.49174
 Alpha  occ. eigenvalues --   -0.48208  -0.46549  -0.46067  -0.45183  -0.43658
 Alpha  occ. eigenvalues --   -0.43035  -0.41647  -0.40070  -0.39270  -0.37480
 Alpha  occ. eigenvalues --   -0.37279  -0.36796  -0.35093  -0.33187  -0.32429
 Alpha  occ. eigenvalues --   -0.27226  -0.24905  -0.21350  -0.20229  -0.18243
 Alpha  occ. eigenvalues --   -0.09521
 Alpha virt. eigenvalues --    0.09401   0.10334   0.11298   0.12089   0.12296
 Alpha virt. eigenvalues --    0.12956   0.13649   0.13916   0.14679   0.15005
 Alpha virt. eigenvalues --    0.15609   0.16392   0.16869   0.17267   0.17559

 Mulliken charges:
               1
     1  C    0.872880
     2  H   -0.209648
     3  H   -0.043365
     4  H   -0.011819
     5  C   -0.621071
     6  C    1.069621
     7  H   -0.077769
     8  H   -0.048433
     9  H   -0.206323
    10  C    0.979297
    11  C    1.248378
    12  C    0.248608
    13  C    0.662856
    14  O   -0.946787
    15  H    0.171544
    16  C    0.032511
    17  C   -0.101880
    18  H   -0.706320
    19  H   -0.593515
    20  H   -0.529627
    21  H   -0.864876
    22  C    1.021925
    23  C    0.194469
    24  H   -0.824726
    25  C    0.206036
    26  H   -0.552429
    27  C    0.426727
    28  O   -1.148583
    29  C    0.121888
    30  H   -0.545174
    31  C    0.675117
    32  H   -0.899510
 Sum of Mulliken charges =  -1.00000

 Dipole moment (field-independent basis, Debye):
    X=            -14.6023    Y=              4.5552    Z=              1.6292  Tot=             15.3828
 Quadrupole moment (field-independent basis, Debye-Ang):
   XX=           -196.4106   YY=           -115.6786   ZZ=           -106.5200
   XY=             29.1773   XZ=              1.3529   YZ=             -5.9253

 Normal termination of Gaussian 16 at Mon Jul 12 14:34:07 2021.
