 Gaussian 16, Revision A.03,

 ---------------------------------------------------------------
 #p b3lyp/6-31G(d) opt freq scrf=(iefpcm,read,solvent=n-octanol)
 ---------------------------------------------------------------

 -----------------------------------------
 SET_328_BBB212_conf1.geo_315_300 geometry
 -----------------------------------------
 Symbolic Z-matrix:
 Charge = -1 Multiplicity = 1

 SCF Done:  E(RB3LYP) =  -731.143832965     A.U. after   13 cycles
 SCF Done:  E(RB3LYP) =  -731.176094610     A.U. after   12 cycles
 SCF Done:  E(RB3LYP) =  -731.189306719     A.U. after   12 cycles
 SCF Done:  E(RB3LYP) =  -731.190078594     A.U. after   11 cycles
 SCF Done:  E(RB3LYP) =  -731.190381675     A.U. after   10 cycles
 SCF Done:  E(RB3LYP) =  -731.190175024     A.U. after   10 cycles
 SCF Done:  E(RB3LYP) =  -731.190236609     A.U. after    9 cycles
 SCF Done:  E(RB3LYP) =  -731.190379462     A.U. after   10 cycles
 SCF Done:  E(RB3LYP) =  -731.190378930     A.U. after    5 cycles
 SCF Done:  E(RB3LYP) =  -731.190378810     A.U. after    4 cycles
 SCF Done:  E(RB3LYP) =  -731.190371708     A.U. after    3 cycles
 SCF Done:  E(RB3LYP) =  -731.190371704     A.U. after    2 cycles
 SCF Done:  E(RB3LYP) =  -731.190244781     A.U. after    9 cycles
 SCF Done:  E(RB3LYP) =  -731.190259786     A.U. after    7 cycles
 SCF Done:  E(RB3LYP) =  -731.190372615     A.U. after    9 cycles
 SCF Done:  E(RB3LYP) =  -731.190259713     A.U. after    9 cycles
 Optimization completed.
    -- Stationary point found.
 Normal termination of Gaussian 16 at Mon Jul 12 14:05:40 2021.

 --------------------------------------------------------------------
 #P Geom=AllCheck Guess=TCheck SCRF=Check GenChk RB3LYP/6-31G(d) Freq
 --------------------------------------------------------------------

 Structure from the checkpoint file:  "SET_328_BBB212_conf1.geo_315_300.chk"
 -----------------------------------------
 SET_328_BBB212_conf1.geo_315_300 geometry
 -----------------------------------------
 Charge = -1 Multiplicity = 1

 SCF Done:  E(RB3LYP) =  -731.190259713     A.U. after    1 cycles

  Exact polarizability: 268.700  20.281 181.154 -28.543  -3.314 165.262
 Approx polarizability: 317.529  30.313 236.639 -39.996  -7.232 221.622

                      1                      2                      3
                      A                      A                      A
 Frequencies --     21.0960                43.4643                54.7094
 Red. masses --      3.7191                 7.3424                 3.9035
 Frc consts  --      0.0010                 0.0082                 0.0069
 IR Inten    --      0.7335                 5.9646                 0.5163

                      4                      5                      6
                      A                      A                      A
 Frequencies --     98.4190               153.6662               193.3344
 Red. masses --      4.6801                 5.8111                 4.2690
 Frc consts  --      0.0267                 0.0808                 0.0940
 IR Inten    --      1.0953                 2.5260                 1.6627

                      7                      8                      9
                      A                      A                      A
 Frequencies --    227.6874               258.3540               282.9130
 Red. masses --      3.0559                 2.7625                 3.8922
 Frc consts  --      0.0933                 0.1086                 0.1835
 IR Inten    --      0.1067                 0.0625                 3.6281

                     10                     11                     12
                      A                      A                      A
 Frequencies --    296.1005               309.9608               329.3437
 Red. masses --      1.7263                 1.1788                 1.1571
 Frc consts  --      0.0892                 0.0667                 0.0739
 IR Inten    --      0.4249                 0.1256               147.0547

                     13                     14                     15
                      A                      A                      A
 Frequencies --    333.0862               345.5189               375.1516
 Red. masses --      2.0028                 2.5575                 3.7339
 Frc consts  --      0.1309                 0.1799                 0.3096
 IR Inten    --      4.9535                 5.1217                 0.7561

                     16                     17                     18
                      A                      A                      A
 Frequencies --    415.2259               421.7345               435.5981
 Red. masses --      3.9886                 3.1438                 3.4268
 Frc consts  --      0.4052                 0.3294                 0.3831
 IR Inten    --     17.5732                 1.5922                 0.4161

                     19                     20                     21
                      A                      A                      A
 Frequencies --    445.4429               479.9327               491.6281
 Red. masses --      4.7910                 3.7795                 3.5371
 Frc consts  --      0.5601                 0.5129                 0.5037
 IR Inten    --      2.6120                 1.7547                 2.1872

                     22                     23                     24
                      A                      A                      A
 Frequencies --    536.1441               558.1265               568.4683
 Red. masses --      4.0285                 2.3626                 2.3193
 Frc consts  --      0.6823                 0.4336                 0.4416
 IR Inten    --     14.1770                33.3883                24.6748

                     25                     26                     27
                      A                      A                      A
 Frequencies --    647.0192               651.0446               657.3393
 Red. masses --      5.7765                 6.5420                 6.7739
 Frc consts  --      1.4248                 1.6337                 1.7245
 IR Inten    --      4.3174                 1.8852                 1.8494

                     28                     29                     30
                      A                      A                      A
 Frequencies --    735.8793               748.4000               767.1190
 Red. masses --      4.2226                 3.7899                 2.8158
 Frc consts  --      1.3472                 1.2507                 0.9763
 IR Inten    --      7.6408                 2.8955                14.2664

                     31                     32                     33
                      A                      A                      A
 Frequencies --    811.6431               817.4149               844.6352
 Red. masses --      1.3516                 1.2499                 2.5412
 Frc consts  --      0.5246                 0.4921                 1.0681
 IR Inten    --     17.2641                 1.1949                43.6761

                     34                     35                     36
                      A                      A                      A
 Frequencies --    845.3934               846.7708               853.1390
 Red. masses --      1.6595                 3.8849                 5.2010
 Frc consts  --      0.6988                 1.6412                 2.2303
 IR Inten    --     26.3010                37.6231                 8.7307

                     37                     38                     39
                      A                      A                      A
 Frequencies --    929.9705               939.9873               943.4249
 Red. masses --      1.7569                 1.3256                 1.3666
 Frc consts  --      0.8952                 0.6901                 0.7167
 IR Inten    --      1.6105                 0.5597                 0.0410

                     40                     41                     42
                      A                      A                      A
 Frequencies --    951.7328               957.2058               965.8277
 Red. masses --      1.5621                 1.4055                 1.3221
 Frc consts  --      0.8336                 0.7587                 0.7266
 IR Inten    --      2.7265                 2.2929                 2.5550

                     43                     44                     45
                      A                      A                      A
 Frequencies --   1001.5062              1031.9550              1041.0642
 Red. masses --      2.8358                 2.4610                 1.4006
 Frc consts  --      1.6758                 1.5441                 0.8944
 IR Inten    --      8.3344                 5.4053                 2.9779

                     46                     47                     48
                      A                      A                      A
 Frequencies --   1108.4271              1119.7869              1133.9998
 Red. masses --      1.7220                 1.8053                 1.4817
 Frc consts  --      1.2465                 1.3338                 1.1227
 IR Inten    --     28.0236                10.1704                 3.0237

                     49                     50                     51
                      A                      A                      A
 Frequencies --   1142.3089              1181.4074              1199.6683
 Red. masses --      2.0564                 2.0475                 1.2177
 Frc consts  --      1.5809                 1.6838                 1.0326
 IR Inten    --      1.7717                18.3456                88.9967

                     52                     53                     54
                      A                      A                      A
 Frequencies --   1202.0029              1212.7058              1259.2129
 Red. masses --      1.4908                 1.1398                 3.2138
 Frc consts  --      1.2691                 0.9876                 3.0024
 IR Inten    --    309.4046                 3.7876                12.0344

                     55                     56                     57
                      A                      A                      A
 Frequencies --   1267.2706              1276.7042              1305.1219
 Red. masses --      3.5156                 2.7388                 3.2121
 Frc consts  --      3.3265                 2.6302                 3.2236
 IR Inten    --     28.2459                27.3324               108.8218

                     58                     59                     60
                      A                      A                      A
 Frequencies --   1342.2588              1346.7410              1381.3005
 Red. masses --      1.7846                 2.0626                 2.2097
 Frc consts  --      1.8944                 2.2041                 2.4841
 IR Inten    --     37.3733                19.0285                84.7538

                     61                     62                     63
                      A                      A                      A
 Frequencies --   1417.3248              1420.0263              1435.0515
 Red. masses --      3.1387                 1.2409                 1.2403
 Frc consts  --      3.7149                 1.4743                 1.5049
 IR Inten    --    219.7713                12.2071                10.9532

                     64                     65                     66
                      A                      A                      A
 Frequencies --   1468.8705              1474.9764              1513.5889
 Red. masses --      3.4640                 2.8106                 1.0590
 Frc consts  --      4.4035                 3.6026                 1.4294
 IR Inten    --     17.2949                33.0555                 4.1990

                     67                     68                     69
                      A                      A                      A
 Frequencies --   1515.2334              1527.5299              1531.8125
 Red. masses --      1.0637                 1.0667                 1.0961
 Frc consts  --      1.4390                 1.4665                 1.5153
 IR Inten    --      3.7192                 4.7700                24.4189

                     70                     71                     72
                      A                      A                      A
 Frequencies --   1557.6831              1562.8355              1573.9181
 Red. masses --      4.4247                 2.4117                 3.7929
 Frc consts  --      6.3254                 3.4705                 5.5359
 IR Inten    --    145.2959               184.7619               403.7339

                     73                     74                     75
                      A                      A                      A
 Frequencies --   1647.5717              1657.2539              1673.7362
 Red. masses --      5.9382                 5.6927                 5.9531
 Frc consts  --      9.4972                 9.2119                 9.8258
 IR Inten    --     28.4768               381.1241                43.7457

                     76                     77                     78
                      A                      A                      A
 Frequencies --   3050.2121              3057.0421              3118.1873
 Red. masses --      1.0384                 1.0380                 1.0971
 Frc consts  --      5.6923                 5.7156                 6.2848
 IR Inten    --     47.4000                53.8803                18.5965

                     79                     80                     81
                      A                      A                      A
 Frequencies --   3123.4949              3139.7397              3141.2144
 Red. masses --      1.0995                 1.1020                 1.1018
 Frc consts  --      6.3200                 6.4007                 6.4056
 IR Inten    --    117.6081                44.8489                42.9659

                     82                     83                     84
                      A                      A                      A
 Frequencies --   3154.3035              3155.5210              3180.3113
 Red. masses --      1.0854                 1.0864                 1.0918
 Frc consts  --      6.3628                 6.3735                 6.5064
 IR Inten    --    104.5757                 7.7304               134.5027

                     85                     86                     87
                      A                      A                      A
 Frequencies --   3186.8864              3194.5486              3213.8897
 Red. masses --      1.0907                 1.0888                 1.0871
 Frc consts  --      6.5267                 6.5464                 6.6156
 IR Inten    --     21.3993                35.3918                10.6722

                     88                     89                     90
                      A                      A                      A
 Frequencies --   3227.4464              3229.4468              3749.9446
 Red. masses --      1.0923                 1.0921                 1.0660
 Frc consts  --      6.7036                 6.7105                 8.8319
 IR Inten    --     40.5499                 2.8728               107.2024

 - Thermochemistry -
 -------------------
 Temperature   298.150 Kelvin.  Pressure   1.00000 Atm.
 Atom     1 has atomic number  6 and mass  12.00000

 Molecular mass:   227.10720 amu.
 Principal axes and moments of inertia in atomic units:
                           1         2         3
     Eigenvalues --  2065.177816910.606607805.06997
           X            0.99997  -0.00371  -0.00631
           Y            0.00371   0.99999  -0.00104
           Z            0.00631   0.00101   0.99998
 This molecule is an asymmetric top.
 Rotational symmetry number  1.
 Warning -- assumption of classical behavior for rotation
           may cause significant error
 Rotational temperatures (Kelvin)      0.04194     0.01253     0.01110
 Rotational constants (GHZ):           0.87389     0.26116     0.23123
 Zero-point vibrational energy     688104.6 (Joules/Mol)
                                  164.46094 (Kcal/Mol)
 Warning -- explicit consideration of  24 degrees of freedom as
           vibrations may cause significant error
 Vibrational temperatures:     30.35    62.54    78.71   141.60   221.09
          (Kelvin)            278.17   327.59   371.71   407.05   426.02
                              445.96   473.85   479.24   497.12   539.76
                              597.42   606.78   626.73   640.89   690.52
                              707.34   771.39   803.02   817.90   930.92
                              936.71   945.76  1058.77  1076.78  1103.71
                             1167.77  1176.08  1215.24  1216.33  1218.31
                             1227.48  1338.02  1352.43  1357.38  1369.33
                             1377.21  1389.61  1440.94  1484.75  1497.86
                             1594.78  1611.12  1631.57  1643.53  1699.78
                             1726.06  1729.41  1744.81  1811.73  1823.32
                             1836.89  1877.78  1931.21  1937.66  1987.38
                             2039.21  2043.10  2064.72  2113.38  2122.16
                             2177.72  2180.08  2197.77  2203.94  2241.16
                             2248.57  2264.52  2370.49  2384.42  2408.13
                             4388.57  4398.40  4486.38  4494.01  4517.39
                             4519.51  4538.34  4540.09  4575.76  4585.22
                             4596.24  4624.07  4643.58  4646.45  5395.33

 Zero-point correction=                           0.262085 (Hartree/Particle)
 Thermal correction to Energy=                    0.277094
 Thermal correction to Enthalpy=                  0.278038
 Thermal correction to Gibbs Free Energy=         0.219350
 Sum of electronic and zero-point Energies=           -730.928175
 Sum of electronic and thermal Energies=              -730.913166
 Sum of electronic and thermal Enthalpies=            -730.912222
 Sum of electronic and thermal Free Energies=         -730.970910

                     E (Thermal)             CV                S
                      KCal/Mol        Cal/Mol-Kelvin    Cal/Mol-Kelvin
 Total                  173.879             60.227            123.520
 Electronic               0.000              0.000              0.000
 Translational            0.889              2.981             42.163
 Rotational               0.889              2.981             33.076
 Vibrational            172.102             54.265             48.280
 Vibration     1          0.593              1.985              6.528
 Vibration     2          0.595              1.980              5.095
 Vibration     3          0.596              1.976              4.639
 Vibration     4          0.604              1.950              3.485
 Vibration     5          0.619              1.899              2.626
 Vibration     6          0.635              1.849              2.196
 Vibration     7          0.651              1.799              1.897
 Vibration     8          0.667              1.749              1.673
 Vibration     9          0.682              1.705              1.516
 Vibration    10          0.690              1.681              1.439
 Vibration    11          0.699              1.655              1.363
 Vibration    12          0.712              1.617              1.263
 Vibration    13          0.715              1.609              1.245
 Vibration    14          0.724              1.584              1.187
 Vibration    15          0.746              1.523              1.059
 Vibration    16          0.779              1.437              0.908
 Vibration    17          0.784              1.423              0.886
 Vibration    18          0.796              1.393              0.841
 Vibration    19          0.805              1.371              0.810
 Vibration    20          0.836              1.295              0.710
 Vibration    21          0.847              1.269              0.679
 Vibration    22          0.891              1.170              0.574
 Vibration    23          0.914              1.122              0.528
 Vibration    24          0.924              1.099              0.507

 Optimization completed.
    -- Stationary point found.
 Normal termination of Gaussian 16 at Mon Jul 12 14:38:47 2021.

 ----------------------------------------------------------------------
 #p b3lyp/6-31G(d) scrf=(iefpcm,read,solvent=n-octanol) geom=allcheck g
 uess=read
 ----------------------------------------------------------------------

 Structure from the checkpoint file:  "SET_328_BBB212_conf1.geo_315_300.chk"
 -----------------------------------------
 SET_328_BBB212_conf1.geo_315_300 geometry
 -----------------------------------------
 Charge = -1 Multiplicity = 1

 SCF Done:  E(RB3LYP) =  -731.190259713     A.U. after    2 cycles
 Normal termination of Gaussian 16 at Mon Jul 12 14:39:47 2021.

 -----------------------------
 #p B3LYP/6-31G* geom=allcheck
 -----------------------------

 Structure from the checkpoint file:  "SET_328_BBB212_conf1.geo_315_300.chk"
 -----------------------------------------
 SET_328_BBB212_conf1.geo_315_300 geometry
 -----------------------------------------
 Charge = -1 Multiplicity = 1

 SCF Done:  E(RB3LYP) =  -731.090674194     A.U. after   19 cycles
 Normal termination of Gaussian 16 at Mon Jul 12 14:42:32 2021.
 Gaussian 16:  ES64L-G16RevA.03 25-Dec-2016

 --------------------------------------------------------
 #p mp2/aug-cc-pVDZ scf=tight maxdisk=180GB geom=allcheck
 --------------------------------------------------------

 Structure from the checkpoint file:  "SET_328_BBB212_conf1.geo_315_300.chk"
 -----------------------------------------
 SET_328_BBB212_conf1.geo_315_300 geometry
 -----------------------------------------
 Charge = -1 Multiplicity = 1

                         Standard orientation:
 ---------------------------------------------------------------------
 Center     Atomic      Atomic             Coordinates (Angstroms)
 Number     Number       Type             X           Y           Z
 ---------------------------------------------------------------------
      1          6           0       -0.085883    2.409147   -1.145460
      2          1           0       -1.002425    3.002134   -1.089994
      3          1           0       -0.093367    1.868703   -2.096084
      4          1           0        0.762719    3.103436   -1.148762
      5          6           0       -0.037851    1.433890    0.050053
      6          6           0        0.036565    2.281320    1.337711
      7          1           0        0.948857    2.884689    1.335378
      8          1           0        0.050990    1.652851    2.231469
      9          1           0       -0.821927    2.958373    1.413519
     10          6           0        1.224291    0.553786    0.006468
     11          6           0        1.284955   -0.604975    0.795846
     12          6           0        2.418617   -1.406338    0.846662
     13          6           0        3.543168   -1.069168    0.084681
     14          8           0        4.633530   -1.894529    0.162470
     15          1           0        5.333467   -1.551341   -0.415637
     16          6           0        3.507857    0.072644   -0.715464
     17          6           0        2.360417    0.870381   -0.744662
     18          1           0        2.366366    1.751660   -1.374935
     19          1           0        4.370181    0.341374   -1.318317
     20          1           0        2.446815   -2.299419    1.460688
     21          1           0        0.406130   -0.883827    1.366426
     22          6           0       -1.295980    0.558848    0.019455
     23          6           0       -1.569531   -0.239254   -1.108041
     24          1           0       -0.859954   -0.234309   -1.933296
     25          6           0       -2.706968   -1.026672   -1.204318
     26          1           0       -2.881425   -1.627690   -2.093449
     27          6           0       -3.696066   -1.091479   -0.159848
     28          8           0       -4.753853   -1.814776   -0.246729
     29          6           0       -3.389669   -0.273442    0.979016
     30          1           0       -4.096575   -0.279132    1.806958
     31          6           0       -2.241719    0.511400    1.054632
     32          1           0       -2.080489    1.106419    1.949729
 ---------------------------------------------------------------------

 SCF Done:  E(RHF) =  -726.570464759     A.U. after   20 cycles
 E2 =    -0.2501534729D+01 EUMP2 =    -0.72907199948819D+03

 The electronic state is 1-A.
 Alpha  occ. eigenvalues --  -20.52104 -20.30351 -11.21729 -11.15117 -11.14960
 Alpha  occ. eigenvalues --  -11.14315 -11.14174 -11.14099 -11.13823 -11.11971
 Alpha  occ. eigenvalues --  -11.11954 -11.11750 -11.09044 -11.08915 -11.07052
 Alpha  occ. eigenvalues --  -11.05740 -11.05340  -1.32595  -1.11812  -1.06233
 Alpha  occ. eigenvalues --   -1.00415  -0.95048  -0.92713  -0.89394  -0.85314
 Alpha  occ. eigenvalues --   -0.82739  -0.81221  -0.75439  -0.74383  -0.67887
 Alpha  occ. eigenvalues --   -0.66013  -0.64467  -0.61896  -0.58132  -0.54910
 Alpha  occ. eigenvalues --   -0.52575  -0.52379  -0.50717  -0.49495  -0.49317
 Alpha  occ. eigenvalues --   -0.47863  -0.46471  -0.46147  -0.45150  -0.43657
 Alpha  occ. eigenvalues --   -0.43083  -0.41649  -0.39981  -0.39260  -0.37412
 Alpha  occ. eigenvalues --   -0.37255  -0.36836  -0.35048  -0.33180  -0.32381
 Alpha  occ. eigenvalues --   -0.27209  -0.24768  -0.21353  -0.20194  -0.18218
 Alpha  occ. eigenvalues --   -0.09487
 Alpha virt. eigenvalues --    0.08875   0.10562   0.11307   0.11984   0.12251
 Alpha virt. eigenvalues --    0.12971   0.13616   0.14052   0.14753   0.14988
 Alpha virt. eigenvalues --    0.15586   0.16405   0.16830   0.17135   0.17606

 Mulliken charges:
               1
     1  C    1.070299
     2  H   -0.202973
     3  H   -0.055994
     4  H   -0.074643
     5  C   -0.942560
     6  C    0.934157
     7  H   -0.206206
     8  H    0.000296
     9  H   -0.041141
    10  C    0.914643
    11  C    0.407858
    12  C    0.350180
    13  C    0.722721
    14  O   -0.943002
    15  H    0.172930
    16  C    0.007871
    17  C    0.668454
    18  H   -0.804910
    19  H   -0.611935
    20  H   -0.498664
    21  H   -0.712270
    22  C    1.111887
    23  C    0.328109
    24  H   -0.838239
    25  C    0.192850
    26  H   -0.554468
    27  C    0.408917
    28  O   -1.146820
    29  C    0.137763
    30  H   -0.541062
    31  C    0.642535
    32  H   -0.896581
 Sum of Mulliken charges =  -1.00000

 Dipole moment (field-independent basis, Debye):
    X=             15.6570    Y=              6.0705    Z=             -0.0838  Tot=             16.7929
 Quadrupole moment (field-independent basis, Debye-Ang):
   XX=           -183.0415   YY=           -123.2118   ZZ=           -107.2818
   XY=            -22.3328   XZ=            -11.2608   YZ=             -1.5233

 Normal termination of Gaussian 16 at Mon Jul 12 15:36:20 2021.
