 Gaussian 16, Revision A.03,

 ---------------------------------------------------------------
 #p b3lyp/6-31G(d) opt freq scrf=(iefpcm,read,solvent=n-octanol)
 ---------------------------------------------------------------

 ---------------------------------------
 SET_328_BBB2_conf1.geo_225_285 geometry
 ---------------------------------------
 Symbolic Z-matrix:
 Charge =  1 Multiplicity = 1

 SCF Done:  E(RB3LYP) =  -1633.63787811     A.U. after   13 cycles
 SCF Done:  E(RB3LYP) =  -1633.66151745     A.U. after   11 cycles
 SCF Done:  E(RB3LYP) =  -1633.64904579     A.U. after   12 cycles
 SCF Done:  E(RB3LYP) =  -1633.67021251     A.U. after   11 cycles
 SCF Done:  E(RB3LYP) =  -1633.67001033     A.U. after   11 cycles
 SCF Done:  E(RB3LYP) =  -1633.67100477     A.U. after   10 cycles
 SCF Done:  E(RB3LYP) =  -1633.67090287     A.U. after   11 cycles
 SCF Done:  E(RB3LYP) =  -1633.67159269     A.U. after   10 cycles
 SCF Done:  E(RB3LYP) =  -1633.67148539     A.U. after   10 cycles
 SCF Done:  E(RB3LYP) =  -1633.67167950     A.U. after   10 cycles
 SCF Done:  E(RB3LYP) =  -1633.67176695     A.U. after    7 cycles
 SCF Done:  E(RB3LYP) =  -1633.67176513     A.U. after    9 cycles
 SCF Done:  E(RB3LYP) =  -1633.67176983     A.U. after    8 cycles
 SCF Done:  E(RB3LYP) =  -1633.67177006     A.U. after    7 cycles
 SCF Done:  E(RB3LYP) =  -1633.67176960     A.U. after    7 cycles
 SCF Done:  E(RB3LYP) =  -1633.67176928     A.U. after    6 cycles
 Optimization completed.
    -- Stationary point found.
 Normal termination of Gaussian 16 at Mon Jul 12 13:26:59 2021.

 --------------------------------------------------------------------
 #P Geom=AllCheck Guess=TCheck SCRF=Check GenChk RB3LYP/6-31G(d) Freq
 --------------------------------------------------------------------

 Structure from the checkpoint file:  "SET_328_BBB2_conf1.geo_225_285.chk"
 ---------------------------------------
 SET_328_BBB2_conf1.geo_225_285 geometry
 ---------------------------------------
 Charge =  1 Multiplicity = 1

 SCF Done:  E(RB3LYP) =  -1633.67176928     A.U. after    1 cycles

  Exact polarizability: 288.439 -11.573 234.601 -17.231  19.827 197.660
 Approx polarizability: 328.494 -14.300 297.918 -23.335  37.655 266.579

                      1                      2                      3
                      A                      A                      A
 Frequencies --     25.8727                38.0361                53.8815
 Red. masses --      6.5670                 6.5526                 5.7410
 Frc consts  --      0.0026                 0.0056                 0.0098
 IR Inten    --      0.2784                 1.1004                 2.8659

                      4                      5                      6
                      A                      A                      A
 Frequencies --     96.5847               114.5502               129.2846
 Red. masses --      4.6608                 3.5891                 4.7995
 Frc consts  --      0.0256                 0.0277                 0.0473
 IR Inten    --      3.1677                 1.0060                 2.4182

                      7                      8                      9
                      A                      A                      A
 Frequencies --    163.5508               188.3698               195.1141
 Red. masses --      4.0679                 6.3740                 2.3632
 Frc consts  --      0.0641                 0.1333                 0.0530
 IR Inten    --      0.6441                 3.1839                 3.4887

                     10                     11                     12
                      A                      A                      A
 Frequencies --    202.3611               227.0053               287.9677
 Red. masses --     15.0652                 3.3161                 3.1774
 Frc consts  --      0.3635                 0.1007                 0.1552
 IR Inten    --      0.3107                 3.3446                 2.5197

                     13                     14                     15
                      A                      A                      A
 Frequencies --    289.9175               315.8898               338.4836
 Red. masses --      1.5923                 4.4016                 4.5310
 Frc consts  --      0.0789                 0.2588                 0.3059
 IR Inten    --      4.9871                 2.1818                 1.0700

                     16                     17                     18
                      A                      A                      A
 Frequencies --    369.8493               378.4609               397.1342
 Red. masses --      3.4377                 3.2922                 3.7633
 Frc consts  --      0.2771                 0.2778                 0.3497
 IR Inten    --      5.3731                 2.0979                 0.9807

                     19                     20                     21
                      A                      A                      A
 Frequencies --    401.1572               440.5025               452.9698
 Red. masses --      4.2255                 3.8881                 3.5420
 Frc consts  --      0.4006                 0.4445                 0.4282
 IR Inten    --      0.6539                 3.8216                 3.5964

                     22                     23                     24
                      A                      A                      A
 Frequencies --    466.8497               493.0751               523.2400
 Red. masses --      5.2714                 5.1799                 3.5782
 Frc consts  --      0.6769                 0.7420                 0.5772
 IR Inten    --      4.4142                20.2058                 8.6777

                     25                     26                     27
                      A                      A                      A
 Frequencies --    542.8195               570.9810               612.8700
 Red. masses --      4.3068                 3.1564                 4.5513
 Frc consts  --      0.7477                 0.6063                 1.0072
 IR Inten    --      5.8510                 8.5000                 8.6175

                     28                     29                     30
                      A                      A                      A
 Frequencies --    635.7922               649.2996               690.2966
 Red. masses --      5.4508                 3.0040                 6.6835
 Frc consts  --      1.2982                 0.7462                 1.8764
 IR Inten    --      3.1645                 2.2963                22.0712

                     31                     32                     33
                      A                      A                      A
 Frequencies --    697.3413               723.5394               746.0568
 Red. masses --      4.0823                 3.4782                 3.7791
 Frc consts  --      1.1696                 1.0728                 1.2393
 IR Inten    --      4.2597                 8.1359                 8.2268

                     34                     35                     36
                      A                      A                      A
 Frequencies --    783.8525               801.5491               826.4810
 Red. masses --      1.3657                 3.1741                 2.5349
 Frc consts  --      0.4944                 1.2015                 1.0202
 IR Inten    --     65.9544                 9.6899                15.0911

                     37                     38                     39
                      A                      A                      A
 Frequencies --    836.7206               844.2032               859.6380
 Red. masses --      1.5878                 2.4143                 2.4795
 Frc consts  --      0.6550                 1.0138                 1.0796
 IR Inten    --     22.8826                13.8135                18.0805

                     40                     41                     42
                      A                      A                      A
 Frequencies --    895.1920               900.1580               911.1479
 Red. masses --      1.4800                 1.6224                 1.8569
 Frc consts  --      0.6988                 0.7745                 0.9083
 IR Inten    --     17.8590                 7.3465                 6.0685

                     43                     44                     45
                      A                      A                      A
 Frequencies --    935.6585               967.1419               971.7545
 Red. masses --      1.7100                 1.8869                 1.6893
 Frc consts  --      0.8820                 1.0399                 0.9399
 IR Inten    --     21.3410                 6.5998                 4.8163

                     46                     47                     48
                      A                      A                      A
 Frequencies --    978.4238              1010.7784              1018.0996
 Red. masses --      1.3690                 1.3035                 3.2405
 Frc consts  --      0.7722                 0.7846                 1.9790
 IR Inten    --      1.3589                 1.2917                42.5897

                     49                     50                     51
                      A                      A                      A
 Frequencies --   1024.6219              1039.3855              1065.4838
 Red. masses --      2.5604                 5.0664                 1.8554
 Frc consts  --      1.5838                 3.2248                 1.2410
 IR Inten    --      1.9844                62.1613                11.1695

                     52                     53                     54
                      A                      A                      A
 Frequencies --   1068.6330              1106.7282              1139.9364
 Red. masses --      2.3335                 1.8532                 1.8182
 Frc consts  --      1.5700                 1.3374                 1.3920
 IR Inten    --      5.3544                 0.4196                21.2505

                     55                     56                     57
                      A                      A                      A
 Frequencies --   1146.3554              1162.7484              1165.0017
 Red. masses --      1.8230                 1.6214                 1.3325
 Frc consts  --      1.4115                 1.2915                 1.0656
 IR Inten    --     28.0013                18.7092                10.9986

                     58                     59                     60
                      A                      A                      A
 Frequencies --   1179.6053              1194.3917              1195.5810
 Red. masses --      1.4083                 1.2952                 1.3439
 Frc consts  --      1.1546                 1.0887                 1.1318
 IR Inten    --      5.7195                 3.6211                 2.9530

                     61                     62                     63
                      A                      A                      A
 Frequencies --   1200.6019              1207.9840              1228.2040
 Red. masses --      1.7604                 2.1447                 2.0589
 Frc consts  --      1.4951                 1.8439                 1.8299
 IR Inten    --      4.4959                16.8844                 5.9805

                     64                     65                     66
                      A                      A                      A
 Frequencies --   1255.7853              1272.8306              1283.4376
 Red. masses --      1.4243                 1.3427                 1.5742
 Frc consts  --      1.3233                 1.2817                 1.5278
 IR Inten    --      8.8115                 8.1214                 7.7180

                     67                     68                     69
                      A                      A                      A
 Frequencies --   1307.8771              1342.8864              1356.1133
 Red. masses --      2.1935                 2.5653                 2.6381
 Frc consts  --      2.2106                 2.7257                 2.8584
 IR Inten    --     10.5580                 2.4069                 4.6253

                     70                     71                     72
                      A                      A                      A
 Frequencies --   1357.3852              1374.9149              1379.4759
 Red. masses --      2.4481                 1.5847                 1.3649
 Frc consts  --      2.6576                 1.7650                 1.5303
 IR Inten    --      5.3833                 0.6154                36.7427

                     73                     74                     75
                      A                      A                      A
 Frequencies --   1393.6256              1429.7031              1438.1612
 Red. masses --      1.4779                 2.8135                 1.2940
 Frc consts  --      1.6911                 3.3883                 1.5769
 IR Inten    --      0.5582                34.0034                 1.5867

                     76                     77                     78
                      A                      A                      A
 Frequencies --   1457.1168              1470.3577              1491.7344
 Red. masses --      1.2205                 1.1575                 1.3464
 Frc consts  --      1.5268                 1.4744                 1.7653
 IR Inten    --     26.0895                 4.9231                42.2427

                     79                     80                     81
                      A                      A                      A
 Frequencies --   1500.4658              1509.1742              1519.7918
 Red. masses --      1.8372                 2.5826                 1.0388
 Frc consts  --      2.4370                 3.4657                 1.4136
 IR Inten    --     46.7576                79.3140                10.0971

                     82                     83                     84
                      A                      A                      A
 Frequencies --   1532.5115              1538.5397              1556.9412
 Red. masses --      1.4353                 1.4880                 1.1102
 Frc consts  --      1.9862                 2.0753                 1.5856
 IR Inten    --     11.9864                28.8042                15.3015

                     85                     86                     87
                      A                      A                      A
 Frequencies --   1612.1480              1629.8009              1636.1323
 Red. masses --      7.3027                 1.1955                 4.0995
 Frc consts  --     11.1825                 1.8710                 6.4658
 IR Inten    --     12.3803               100.6438                 6.3298

                     88                     89                     90
                      A                      A                      A
 Frequencies --   1642.9494              1661.6159              1688.2977
 Red. masses --      6.0654                 5.5480                 1.0765
 Frc consts  --      9.6462                 9.0251                 1.8078
 IR Inten    --      5.2262                 7.6763                73.9457

                     91                     92                     93
                      A                      A                      A
 Frequencies --   3063.6455              3081.0171              3083.2699
 Red. masses --      1.0821                 1.0685                 1.0629
 Frc consts  --      5.9840                 5.9763                 5.9536
 IR Inten    --     11.2225                48.1639                38.9416

                     94                     95                     96
                      A                      A                      A
 Frequencies --   3117.6719              3120.3100              3124.9657
 Red. masses --      1.0847                 1.1016                 1.0338
 Frc consts  --      6.2120                 6.3196                 5.9479
 IR Inten    --     24.5345                32.3087                 5.9707

                     97                     98                     99
                      A                      A                      A
 Frequencies --   3127.3766              3203.1386              3209.3613
 Red. masses --      1.0994                 1.0880                 1.0890
 Frc consts  --      6.3355                 6.5773                 6.6089
 IR Inten    --     39.6491                10.1532                 5.2103

                    100                    101                    102
                      A                      A                      A
 Frequencies --   3214.4814              3216.8311              3221.8012
 Red. masses --      1.1081                 1.0894                 1.0920
 Frc consts  --      6.7460                 6.6418                 6.6782
 IR Inten    --      2.6907                 8.4386                22.2182

                    103                    104                    105
                      A                      A                      A
 Frequencies --   3234.9491              3235.0426              3238.7850
 Red. masses --      1.0975                 1.0910                 1.1071
 Frc consts  --      6.7670                 6.7274                 6.8422
 IR Inten    --     18.8099                 2.2525                 4.3949

                    106                    107                    108
                      A                      A                      A
 Frequencies --   3242.1762              3411.0224              3459.3785
 Red. masses --      1.0939                 1.0551                 1.0943
 Frc consts  --      6.7750                 7.2329                 7.7155
 IR Inten    --      4.2137               106.0351               136.8590

 - Thermochemistry -
 -------------------
 Temperature   298.150 Kelvin.  Pressure   1.00000 Atm.
 Atom     1 has atomic number  6 and mass  12.00000

 Molecular mass:   306.08163 amu.
 Principal axes and moments of inertia in atomic units:
                           1         2         3
     Eigenvalues --  3315.49907********************
           X            0.99989  -0.00071  -0.01483
           Y            0.00013   0.99924  -0.03887
           Z            0.01485   0.03887   0.99913
 This molecule is an asymmetric top.
 Rotational symmetry number  1.
 Warning -- assumption of classical behavior for rotation
           may cause significant error
 Rotational temperatures (Kelvin)      0.02612     0.00736     0.00684
 Rotational constants (GHZ):           0.54433     0.15331     0.14248
 Zero-point vibrational energy     839600.0 (Joules/Mol)
                                  200.66922 (Kcal/Mol)
 Warning -- explicit consideration of  27 degrees of freedom as
           vibrations may cause significant error
 Vibrational temperatures:     37.23    54.73    77.52   138.96   164.81
          (Kelvin)            186.01   235.31   271.02   280.73   291.15
                              326.61   414.32   417.13   454.49   487.00
                              532.13   544.52   571.39   577.18   633.78
                              651.72   671.69   709.43   752.83   781.00
                              821.51   881.78   914.76   934.20   993.18
                             1003.32  1041.01  1073.41  1127.79  1153.25
                             1189.12  1203.85  1214.62  1236.83  1287.98
                             1295.13  1310.94  1346.20  1391.50  1398.14
                             1407.73  1454.28  1464.82  1474.20  1495.44
                             1532.99  1537.52  1592.34  1640.11  1649.35
                             1672.94  1676.18  1697.19  1718.46  1720.17
                             1727.40  1738.02  1767.11  1806.79  1831.32
                             1846.58  1881.74  1932.11  1951.14  1952.97
                             1978.20  1984.76  2005.12  2057.02  2069.19
                             2096.47  2115.52  2146.27  2158.84  2171.37
                             2186.64  2204.94  2213.62  2240.09  2319.52
                             2344.92  2354.03  2363.84  2390.69  2429.08
                             4407.90  4432.90  4436.14  4485.63  4489.43
                             4496.13  4499.60  4608.60  4617.56  4624.92
                             4628.30  4635.45  4654.37  4654.50  4659.89
                             4664.77  4907.70  4977.27

 Zero-point correction=                           0.319787 (Hartree/Particle)
 Thermal correction to Energy=                    0.336879
 Thermal correction to Enthalpy=                  0.337823
 Thermal correction to Gibbs Free Energy=         0.273972
 Sum of electronic and zero-point Energies=          -1633.351983
 Sum of electronic and thermal Energies=             -1633.334890
 Sum of electronic and thermal Enthalpies=           -1633.333946
 Sum of electronic and thermal Free Energies=        -1633.397797

                     E (Thermal)             CV                S
                      KCal/Mol        Cal/Mol-Kelvin    Cal/Mol-Kelvin
 Total                  211.395             68.217            134.385
 Electronic               0.000              0.000              0.000
 Translational            0.889              2.981             43.053
 Rotational               0.889              2.981             34.557
 Vibrational            209.617             62.255             56.775
 Vibration     1          0.593              1.985              6.123
 Vibration     2          0.594              1.982              5.359
 Vibration     3          0.596              1.976              4.670
 Vibration     4          0.603              1.952              3.522
 Vibration     5          0.607              1.937              3.190
 Vibration     6          0.612              1.924              2.957
 Vibration     7          0.623              1.887              2.508
 Vibration     8          0.633              1.856              2.244
 Vibration     9          0.636              1.847              2.179
 Vibration    10          0.639              1.837              2.112
 Vibration    11          0.651              1.800              1.903
 Vibration    12          0.685              1.696              1.486
 Vibration    13          0.686              1.692              1.474
 Vibration    14          0.703              1.643              1.331
 Vibration    15          0.719              1.599              1.219
 Vibration    16          0.742              1.534              1.080
 Vibration    17          0.749              1.516              1.045
 Vibration    18          0.764              1.476              0.973
 Vibration    19          0.767              1.468              0.958
 Vibration    20          0.800              1.382              0.825
 Vibration    21          0.812              1.354              0.787
 Vibration    22          0.824              1.324              0.746
 Vibration    23          0.849              1.265              0.676
 Vibration    24          0.878              1.199              0.602
 Vibration    25          0.898              1.155              0.559
 Vibration    26          0.927              1.094              0.502
 Vibration    27          0.972              1.005              0.428

 Optimization completed.
    -- Stationary point found.
 Normal termination of Gaussian 16 at Mon Jul 12 14:23:40 2021.

 ----------------------------------------------------------------------
 #p b3lyp/6-31G(d) scrf=(iefpcm,read,solvent=n-octanol) geom=allcheck g
 uess=read
 ----------------------------------------------------------------------

 Structure from the checkpoint file:  "SET_328_BBB2_conf1.geo_225_285.chk"
 ---------------------------------------
 SET_328_BBB2_conf1.geo_225_285 geometry
 ---------------------------------------
 Charge =  1 Multiplicity = 1

 SCF Done:  E(RB3LYP) =  -1633.67584160     A.U. after    1 cycles
 Normal termination of Gaussian 16 at Mon Jul 12 14:24:54 2021.

 -----------------------------
 #p B3LYP/6-31G* geom=allcheck
 -----------------------------

 Structure from the checkpoint file:  "SET_328_BBB2_conf1.geo_225_285.chk"
 ---------------------------------------
 SET_328_BBB2_conf1.geo_225_285 geometry
 ---------------------------------------
 Charge =  1 Multiplicity = 1

 SCF Done:  E(RB3LYP) =  -1633.57157919     A.U. after   15 cycles
 Normal termination of Gaussian 16 at Mon Jul 12 14:28:26 2021.
 Gaussian 16:  ES64L-G16RevA.03 25-Dec-2016

 --------------------------------------------------------
 #p mp2/aug-cc-pVDZ scf=tight maxdisk=180GB geom=allcheck
 --------------------------------------------------------

 Structure from the checkpoint file:  "SET_328_BBB2_conf1.geo_225_285.chk"
 ---------------------------------------
 SET_328_BBB2_conf1.geo_225_285 geometry
 ---------------------------------------
 Charge =  1 Multiplicity = 1

                         Standard orientation:
 ---------------------------------------------------------------------
 Center     Atomic      Atomic             Coordinates (Angstroms)
 Number     Number       Type             X           Y           Z
 ---------------------------------------------------------------------
      1          6           0       -5.338756   -0.552465    0.940385
      2          1           0       -5.277139    0.378469    0.383442
      3          1           0       -5.385400   -0.355459    2.009947
      4          1           0       -6.208856   -1.127058    0.624251
      5          7           0       -4.111356   -1.362760    0.660987
      6          1           0       -4.086917   -1.589051   -0.344385
      7          6           0       -2.780774   -0.697599    1.081137
      8          6           0       -2.450207    0.430821    0.127150
      9          6           0       -1.529909    0.247570   -0.921186
     10          6           0       -1.317612    1.305434   -1.816874
     11          6           0       -1.974023    2.523842   -1.673538
     12          6           0       -2.848539    2.719333   -0.602459
     13          6           0       -3.077419    1.677463    0.289217
     14          1           0       -3.740110    1.834062    1.134020
     15          1           0       -3.342464    3.673815   -0.460694
     16          1           0       -1.791154    3.323493   -2.382937
     17          1           0       -0.610460    1.169252   -2.629499
     18          1           0       -2.994247   -0.308472    2.080127
     19          6           0       -1.682712   -1.758588    1.146639
     20          1           0       -2.007749   -2.612703    1.747930
     21          1           0       -0.839335   -1.313946    1.684366
     22          6           0       -1.234997   -2.204506   -0.245479
     23          1           0       -2.062193   -2.685225   -0.778759
     24          1           0       -0.458981   -2.967893   -0.153413
     25          6           0       -0.697302   -1.019536   -1.085462
     26          1           0       -0.741993   -1.318651   -2.138244
     27          6           0        0.779965   -0.761422   -0.775547
     28          6           0        1.184130    0.190091    0.163289
     29          1           0        0.451325    0.815041    0.657892
     30          6           0        2.534418    0.374505    0.461787
     31         17           0        2.971113    1.582332    1.646547
     32          6           0        3.506377   -0.392191   -0.186945
     33         17           0        5.207280   -0.187360    0.149392
     34          6           0        3.112180   -1.338710   -1.133889
     35          1           0        3.870361   -1.922198   -1.641707
     36          6           0        1.764509   -1.518932   -1.423137
     37          1           0        1.475519   -2.253912   -2.166415
     38          1           0       -4.199356   -2.265453    1.145677
 ---------------------------------------------------------------------

 SCF Done:  E(RHF) =  -1627.57220830     A.U. after   17 cycles
 E2 =    -0.2828338710D+01 EUMP2 =    -0.16304005470066D+04

 The electronic state is 1-A.
 Alpha  occ. eigenvalues -- -104.92384-104.91871 -15.86368 -11.46308 -11.45512
 Alpha  occ. eigenvalues --  -11.40809 -11.40393 -11.38894 -11.38833 -11.38541
 Alpha  occ. eigenvalues --  -11.38012 -11.37801 -11.37435 -11.36792 -11.36565
 Alpha  occ. eigenvalues --  -11.36371 -11.36327 -11.35364 -11.35206 -11.34914
 Alpha  occ. eigenvalues --  -10.64944 -10.64433  -8.11727  -8.11379  -8.11371
 Alpha  occ. eigenvalues --   -8.11217  -8.10864  -8.10857  -1.48260  -1.31168
 Alpha  occ. eigenvalues --   -1.29814  -1.24675  -1.22388  -1.21540  -1.18212
 Alpha  occ. eigenvalues --   -1.15244  -1.13780  -1.11581  -1.10501  -1.07835
 Alpha  occ. eigenvalues --   -1.01866  -0.98646  -0.96521  -0.94092  -0.93347
 Alpha  occ. eigenvalues --   -0.91638  -0.88350  -0.84661  -0.82666  -0.81463
 Alpha  occ. eigenvalues --   -0.78959  -0.78404  -0.77332  -0.75496  -0.75326
 Alpha  occ. eigenvalues --   -0.74024  -0.73193  -0.72722  -0.72172  -0.70073
 Alpha  occ. eigenvalues --   -0.69145  -0.68641  -0.67615  -0.66875  -0.65359
 Alpha  occ. eigenvalues --   -0.63938  -0.63620  -0.62639  -0.61889  -0.60336
 Alpha  occ. eigenvalues --   -0.59656  -0.58954  -0.56398  -0.54837  -0.54707
 Alpha  occ. eigenvalues --   -0.52339  -0.47058  -0.46088  -0.43614  -0.42001
 Alpha virt. eigenvalues --   -0.08916  -0.06820  -0.06115  -0.05094  -0.04148
 Alpha virt. eigenvalues --   -0.03742  -0.03547  -0.03532  -0.02874  -0.02453
 Alpha virt. eigenvalues --   -0.01776  -0.01508  -0.01267  -0.01035  -0.00484

 Mulliken charges:
               1
     1  C    0.945266
     2  H   -0.090153
     3  H   -0.086004
     4  H   -0.162322
     5  N   -0.718271
     6  H    0.203693
     7  C    0.582116
     8  C    1.068491
     9  C    0.768833
    10  C   -0.208818
    11  C    0.269711
    12  C    0.425280
    13  C   -0.121958
    14  H   -0.753908
    15  H   -0.499152
    16  H   -0.468933
    17  H   -0.750157
    18  H   -0.418548
    19  C    0.736277
    20  H   -0.146449
    21  H   -0.105565
    22  C    0.733776
    23  H   -0.301635
    24  H   -0.152243
    25  C    0.090773
    26  H   -0.139226
    27  C    0.969585
    28  C    1.504664
    29  H   -0.645285
    30  C   -0.306281
    31  Cl  -0.327201
    32  C   -0.517075
    33  Cl  -0.331354
    34  C    0.487230
    35  H   -0.440032
    36  C    0.556375
    37  H   -0.808309
    38  H    0.156808
 Sum of Mulliken charges =   1.00000

 Dipole moment (field-independent basis, Debye):
    X=            -17.8945    Y=             -5.2770    Z=              0.5697  Tot=             18.6651
 Quadrupole moment (field-independent basis, Debye-Ang):
   XX=            -56.7479   YY=           -109.2642   ZZ=           -120.0332
   XY=             11.2409   XZ=            -18.5530   YZ=             -3.3316

 Normal termination of Gaussian 16 at Mon Jul 12 16:10:26 2021.
