 Gaussian 16, Revision A.03,

 ---------------------------------------------------------------
 #p b3lyp/6-31G(d) opt freq scrf=(iefpcm,read,solvent=n-octanol)
 ---------------------------------------------------------------

 ----------------------------------------
 SET_328_BBB65_conf1.geo_060_150 geometry
 ----------------------------------------
 Symbolic Z-matrix:
 Charge =  1 Multiplicity = 1

 SCF Done:  E(RB3LYP) =  -718.016387010     A.U. after   12 cycles
 SCF Done:  E(RB3LYP) =  -718.053584274     A.U. after   11 cycles
 SCF Done:  E(RB3LYP) =  -718.064485173     A.U. after   11 cycles
 SCF Done:  E(RB3LYP) =  -718.083598380     A.U. after   11 cycles
 SCF Done:  E(RB3LYP) =  -718.086903687     A.U. after   11 cycles
 SCF Done:  E(RB3LYP) =  -718.088466329     A.U. after   10 cycles
 SCF Done:  E(RB3LYP) =  -718.088485170     A.U. after   10 cycles
 SCF Done:  E(RB3LYP) =  -718.088835632     A.U. after   10 cycles
 SCF Done:  E(RB3LYP) =  -718.089222253     A.U. after    9 cycles
 SCF Done:  E(RB3LYP) =  -718.089063039     A.U. after   10 cycles
 SCF Done:  E(RB3LYP) =  -718.088983605     A.U. after    7 cycles
 SCF Done:  E(RB3LYP) =  -718.088997488     A.U. after    7 cycles
 SCF Done:  E(RB3LYP) =  -718.088999583     A.U. after    7 cycles
 SCF Done:  E(RB3LYP) =  -718.088999629     A.U. after    7 cycles
 SCF Done:  E(RB3LYP) =  -718.088999782     A.U. after    7 cycles
 SCF Done:  E(RB3LYP) =  -718.089003183     A.U. after    7 cycles
 Optimization completed.
    -- Stationary point found.
 Normal termination of Gaussian 16 at Mon Jul 12 16:40:52 2021.

 --------------------------------------------------------------------
 #P Geom=AllCheck Guess=TCheck SCRF=Check GenChk RB3LYP/6-31G(d) Freq
 --------------------------------------------------------------------

 Structure from the checkpoint file:  "SET_328_BBB65_conf1.geo_060_150.chk"
 ----------------------------------------
 SET_328_BBB65_conf1.geo_060_150 geometry
 ----------------------------------------
 Charge =  1 Multiplicity = 1

 SCF Done:  E(RB3LYP) =  -718.089003183     A.U. after    1 cycles

  Exact polarizability: 244.701  11.329 178.983  -0.507   1.656 209.645
 Approx polarizability: 284.109  13.367 201.087  -0.625   2.654 270.669

                      1                      2                      3
                      A                      A                      A
 Frequencies --     41.0810                65.5672                84.7524
 Red. masses --      3.5639                 3.7143                 3.0309
 Frc consts  --      0.0035                 0.0094                 0.0128
 IR Inten    --      0.0313                 0.6236                 0.3704

                      4                      5                      6
                      A                      A                      A
 Frequencies --    114.6396               151.3049               179.4211
 Red. masses --      3.0613                 2.9642                 3.5542
 Frc consts  --      0.0237                 0.0400                 0.0674
 IR Inten    --      0.2578                 3.0027                 0.5338

                      7                      8                      9
                      A                      A                      A
 Frequencies --    192.1704               206.7437               247.4013
 Red. masses --      2.7430                 2.1020                 3.6119
 Frc consts  --      0.0597                 0.0529                 0.1303
 IR Inten    --      0.2597                 0.0356                 0.3350

                     10                     11                     12
                      A                      A                      A
 Frequencies --    277.3808               306.9172               311.6163
 Red. masses --      2.5393                 4.7266                 3.3992
 Frc consts  --      0.1151                 0.2623                 0.1945
 IR Inten    --      0.4119                 0.6457                 3.4096

                     13                     14                     15
                      A                      A                      A
 Frequencies --    335.5725               343.7497               394.4222
 Red. masses --      2.1351                 1.7973                 2.0517
 Frc consts  --      0.1417                 0.1251                 0.1881
 IR Inten    --      0.1755                 2.1928                 0.9550

                     16                     17                     18
                      A                      A                      A
 Frequencies --    417.6079               421.3332               431.6547
 Red. masses --      2.9756                 2.6767                 3.0312
 Frc consts  --      0.3057                 0.2800                 0.3328
 IR Inten    --      0.2371                 1.8623                 0.3090

                     19                     20                     21
                      A                      A                      A
 Frequencies --    442.8054               455.9591               497.5664
 Red. masses --      2.2603                 2.8742                 2.7857
 Frc consts  --      0.2611                 0.3521                 0.4063
 IR Inten    --      0.1429                 0.6908                 0.3621

                     22                     23                     24
                      A                      A                      A
 Frequencies --    509.4164               522.8625               576.9043
 Red. masses --      1.9745                 1.7086                 3.2071
 Frc consts  --      0.3019                 0.2752                 0.6289
 IR Inten    --      1.1843                 1.6553                10.5161

                     25                     26                     27
                      A                      A                      A
 Frequencies --    628.9708               633.7709               709.6146
 Red. masses --      3.0527                 6.2971                 3.3955
 Frc consts  --      0.7115                 1.4902                 1.0074
 IR Inten    --      8.1515                 0.0239                 8.3592

                     28                     29                     30
                      A                      A                      A
 Frequencies --    721.4281               773.1522               791.5847
 Red. masses --      1.8004                 2.1242                 1.5485
 Frc consts  --      0.5521                 0.7481                 0.5717
 IR Inten    --     34.0519                45.6756                 3.9643

                     31                     32                     33
                      A                      A                      A
 Frequencies --    798.9319               812.8088               823.4566
 Red. masses --      1.9120                 1.5219                 2.9790
 Frc consts  --      0.7190                 0.5924                 1.1902
 IR Inten    --      7.4841                 0.5270                26.2582

                     34                     35                     36
                      A                      A                      A
 Frequencies --    851.1416               869.3079               873.5480
 Red. masses --      3.0388                 1.2464                 2.2765
 Frc consts  --      1.2970                 0.5550                 1.0235
 IR Inten    --      5.4659                 0.2033                29.1634

                     37                     38                     39
                      A                      A                      A
 Frequencies --    882.7632               899.3522               914.2064
 Red. masses --      1.9020                 1.7469                 2.1458
 Frc consts  --      0.8733                 0.8325                 1.0566
 IR Inten    --     11.5600                20.9733                 3.7520

                     40                     41                     42
                      A                      A                      A
 Frequencies --    929.1893               930.5270               946.9892
 Red. masses --      2.1491                 2.3359                 1.5181
 Frc consts  --      1.0932                 1.1917                 0.8021
 IR Inten    --      1.9983                 1.0076                 0.5238

                     43                     44                     45
                      A                      A                      A
 Frequencies --    959.2945               967.4196               989.2906
 Red. masses --      1.4609                 1.3824                 1.3510
 Frc consts  --      0.7921                 0.7623                 0.7790
 IR Inten    --      0.9092                13.5561                 0.0556

                     46                     47                     48
                      A                      A                      A
 Frequencies --   1016.1290              1017.6886              1027.5474
 Red. masses --      1.4129                 3.8734                 2.6815
 Frc consts  --      0.8595                 2.3636                 1.6681
 IR Inten    --      0.8406                 5.5352                16.4504

                     49                     50                     51
                      A                      A                      A
 Frequencies --   1032.6201              1046.2312              1058.8524
 Red. masses --      2.5650                 2.2668                 2.1983
 Frc consts  --      1.6114                 1.4619                 1.4522
 IR Inten    --      3.0276                 5.6938                 3.5556

                     52                     53                     54
                      A                      A                      A
 Frequencies --   1061.0664              1072.6442              1093.4939
 Red. masses --      2.0113                 2.3629                 1.5442
 Frc consts  --      1.3342                 1.6018                 1.0879
 IR Inten    --     12.5153                 1.0634                 0.5327

                     55                     56                     57
                      A                      A                      A
 Frequencies --   1100.3002              1105.2960              1123.8703
 Red. masses --      1.9338                 1.7739                 1.5407
 Frc consts  --      1.3794                 1.2768                 1.1466
 IR Inten    --      4.1599                 0.6370                 5.9764

                     58                     59                     60
                      A                      A                      A
 Frequencies --   1151.2130              1154.7797              1178.0882
 Red. masses --      2.2958                 1.2281                 1.2848
 Frc consts  --      1.7926                 0.9649                 1.0506
 IR Inten    --     21.3618                 2.3110                 4.0082

                     61                     62                     63
                      A                      A                      A
 Frequencies --   1185.0108              1199.1748              1222.8086
 Red. masses --      2.3203                 1.0925                 1.8170
 Frc consts  --      1.9197                 0.9257                 1.6008
 IR Inten    --      3.7437                 0.0260                12.7175

                     64                     65                     66
                      A                      A                      A
 Frequencies --   1223.6743              1236.4282              1249.6178
 Red. masses --      1.5989                 1.3108                 1.7932
 Frc consts  --      1.4106                 1.1807                 1.6498
 IR Inten    --      9.2885                15.5792                 1.5484

                     67                     68                     69
                      A                      A                      A
 Frequencies --   1286.5600              1305.2074              1310.6507
 Red. masses --      1.3398                 1.2418                 1.2157
 Frc consts  --      1.3067                 1.2464                 1.2304
 IR Inten    --     14.5162                 1.9400                 1.0863

                     70                     71                     72
                      A                      A                      A
 Frequencies --   1313.1549              1320.4076              1340.4476
 Red. masses --      1.2549                 1.2349                 1.2734
 Frc consts  --      1.2750                 1.2685                 1.3480
 IR Inten    --      0.3183                 2.6036                 9.0929

                     73                     74                     75
                      A                      A                      A
 Frequencies --   1350.0405              1357.4445              1371.0143
 Red. masses --      2.6976                 1.6226                 1.3025
 Frc consts  --      2.8968                 1.7616                 1.4425
 IR Inten    --      0.0243                 0.3998                 0.0299

                     76                     77                     78
                      A                      A                      A
 Frequencies --   1383.5413              1385.8487              1394.3911
 Red. masses --      1.5139                 1.3760                 1.3803
 Frc consts  --      1.7073                 1.5571                 1.5812
 IR Inten    --      0.9365                 1.5333                13.8998

                     79                     80                     81
                      A                      A                      A
 Frequencies --   1400.4582              1401.7959              1411.4591
 Red. masses --      1.4820                 1.3722                 1.4484
 Frc consts  --      1.7126                 1.5887                 1.7001
 IR Inten    --      1.8477                 6.2907                 5.6861

                     82                     83                     84
                      A                      A                      A
 Frequencies --   1413.9677              1415.7363              1428.4245
 Red. masses --      1.3695                 1.4350                 1.3674
 Frc consts  --      1.6132                 1.6946                 1.6438
 IR Inten    --      9.1479                 2.4393                 1.0907

                     85                     86                     87
                      A                      A                      A
 Frequencies --   1472.7295              1478.2654              1495.3268
 Red. masses --      1.1840                 1.1443                 2.2325
 Frc consts  --      1.5130                 1.4733                 2.9411
 IR Inten    --     47.9194                38.9008                16.4795

                     88                     89                     90
                      A                      A                      A
 Frequencies --   1503.0840              1509.3698              1511.6391
 Red. masses --      1.0927                 1.0880                 1.0929
 Frc consts  --      1.4546                 1.4604                 1.4714
 IR Inten    --      2.5313                 7.2397                 3.8702

                     91                     92                     93
                      A                      A                      A
 Frequencies --   1515.0201              1524.4425              1526.0143
 Red. masses --      1.0852                 1.0871                 1.0925
 Frc consts  --      1.4675                 1.4884                 1.4989
 IR Inten    --     11.4023                 4.4733                25.0981

                     94                     95                     96
                      A                      A                      A
 Frequencies --   1531.2139              1541.8946              1552.5370
 Red. masses --      1.0881                 1.0922                 2.0025
 Frc consts  --      1.5031                 1.5300                 2.8438
 IR Inten    --     33.7182                 0.4848                 7.7490

                     97                     98                     99
                      A                      A                      A
 Frequencies --   1564.3907              1591.7629              1644.3842
 Red. masses --      1.0991                 1.0974                 5.1748
 Frc consts  --      1.5848                 1.6382                 8.2442
 IR Inten    --      7.3314                42.8998                 2.6890

                    100                    101                    102
                      A                      A                      A
 Frequencies --   1665.0049              3052.0337              3053.7022
 Red. masses --      5.4622                 1.0706                 1.0708
 Frc consts  --      8.9217                 5.8756                 5.8830
 IR Inten    --      0.0735                 3.3984                14.8103

                    103                    104                    105
                      A                      A                      A
 Frequencies --   3055.8354              3063.7961              3066.7753
 Red. masses --      1.0697                 1.0634                 1.0666
 Frc consts  --      5.8852                 5.8814                 5.9106
 IR Inten    --     29.8964                92.2282                27.6755

                    106                    107                    108
                      A                      A                      A
 Frequencies --   3078.5636              3082.7831              3092.1216
 Red. masses --      1.0607                 1.0694                 1.0724
 Frc consts  --      5.9232                 5.9878                 6.0411
 IR Inten    --     32.2082                 1.9401                25.6096

                    109                    110                    111
                      A                      A                      A
 Frequencies --   3102.2582              3108.5044              3114.3522
 Red. masses --      1.0926                 1.0905                 1.1005
 Frc consts  --      6.1955                 6.2082                 6.2890
 IR Inten    --     41.9406                46.3449                74.2368

                    112                    113                    114
                      A                      A                      A
 Frequencies --   3117.2414              3118.1649              3127.9928
 Red. masses --      1.0981                 1.0942                 1.0997
 Frc consts  --      6.2870                 6.2685                 6.3393
 IR Inten    --     18.2341                17.8270                36.9738

                    115                    116                    117
                      A                      A                      A
 Frequencies --   3135.3846              3138.1173              3146.8472
 Red. masses --      1.0652                 1.0882                 1.0700
 Frc consts  --      6.1695                 6.3138                 6.2427
 IR Inten    --      9.8199                19.1789                24.4062

                    118                    119                    120
                      A                      A                      A
 Frequencies --   3156.9136              3197.3624              3210.3035
 Red. masses --      1.0934                 1.1066                 1.1057
 Frc consts  --      6.4201                 6.6656                 6.7137
 IR Inten    --     33.5860                 9.9912                 9.1855

                    121                    122                    123
                      A                      A                      A
 Frequencies --   3211.1157              3218.9224              3230.3951
 Red. masses --      1.0863                 1.0891                 1.0922
 Frc consts  --      6.5992                 6.6485                 6.7156
 IR Inten    --      1.1833                 5.9600                28.4544

                    124                    125                    126
                      A                      A                      A
 Frequencies --   3238.2673              3243.7884              3352.5372
 Red. masses --      1.0940                 1.0930                 1.0774
 Frc consts  --      6.7593                 6.7759                 7.1349
 IR Inten    --     27.1721                 8.7055                66.1276

 - Thermochemistry -
 -------------------
 Temperature   298.150 Kelvin.  Pressure   1.00000 Atm.
 Atom     1 has atomic number  6 and mass  12.00000

 Molecular mass:   244.20652 amu.
 Principal axes and moments of inertia in atomic units:
                           1         2         3
     Eigenvalues --  3806.935124692.397916434.30919
           X            0.99977   0.02129  -0.00036
           Y           -0.02129   0.99977   0.00046
           Z            0.00037  -0.00045   1.00000
 This molecule is an asymmetric top.
 Rotational symmetry number  1.
 Warning -- assumption of classical behavior for rotation
           may cause significant error
 Rotational temperatures (Kelvin)      0.02275     0.01846     0.01346
 Rotational constants (GHZ):           0.47407     0.38461     0.28049
 Zero-point vibrational energy    1074987.3 (Joules/Mol)
                                  256.92813 (Kcal/Mol)
 Warning -- explicit consideration of  24 degrees of freedom as
           vibrations may cause significant error
 Vibrational temperatures:     59.11    94.34   121.94   164.94   217.69
          (Kelvin)            258.15   276.49   297.46   355.96   399.09
                              441.59   448.35   482.81   494.58   567.49
                              600.84   606.20   621.05   637.10   656.02
                              715.89   732.94   752.28   830.04   904.95
                              911.85  1020.98  1037.97  1112.39  1138.91
                             1149.48  1169.45  1184.77  1224.60  1250.74
                             1256.84  1270.10  1293.97  1315.34  1336.90
                             1338.82  1362.51  1380.21  1391.90  1423.37
                             1461.98  1464.23  1478.41  1485.71  1505.29
                             1523.45  1526.64  1543.30  1573.29  1583.09
                             1590.27  1617.00  1656.34  1661.47  1695.01
                             1704.97  1725.35  1759.35  1760.59  1778.94
                             1797.92  1851.07  1877.90  1885.73  1889.34
                             1899.77  1928.61  1942.41  1953.06  1972.58
                             1990.61  1993.93  2006.22  2014.95  2016.87
                             2030.77  2034.38  2036.93  2055.18  2118.93
                             2126.89  2151.44  2162.60  2171.65  2174.91
                             2179.78  2193.33  2195.59  2203.08  2218.44
                             2233.75  2250.81  2290.19  2365.90  2395.57
                             4391.20  4393.60  4396.67  4408.12  4412.41
                             4429.37  4435.44  4448.87  4463.46  4472.44
                             4480.86  4485.02  4486.34  4500.48  4511.12
                             4515.05  4527.61  4542.09  4600.29  4618.91
                             4620.08  4631.31  4647.82  4659.14  4667.09
                             4823.55

 Zero-point correction=                           0.409441 (Hartree/Particle)
 Thermal correction to Energy=                    0.425023
 Thermal correction to Enthalpy=                  0.425967
 Thermal correction to Gibbs Free Energy=         0.367490
 Sum of electronic and zero-point Energies=           -717.679562
 Sum of electronic and thermal Energies=              -717.663981
 Sum of electronic and thermal Enthalpies=            -717.663036
 Sum of electronic and thermal Free Energies=         -717.721513

                     E (Thermal)             CV                S
                      KCal/Mol        Cal/Mol-Kelvin    Cal/Mol-Kelvin
 Total                  266.706             65.856            123.075
 Electronic               0.000              0.000              0.000
 Translational            0.889              2.981             42.379
 Rotational               0.889              2.981             33.108
 Vibrational            264.928             59.894             47.588
 Vibration     1          0.594              1.981              5.206
 Vibration     2          0.597              1.971              4.282
 Vibration     3          0.601              1.960              3.778
 Vibration     4          0.608              1.937              3.189
 Vibration     5          0.619              1.901              2.656
 Vibration     6          0.629              1.868              2.334
 Vibration     7          0.634              1.851              2.207
 Vibration     8          0.641              1.830              2.072
 Vibration     9          0.661              1.767              1.749
 Vibration    10          0.678              1.715              1.550
 Vibration    11          0.697              1.661              1.379
 Vibration    12          0.700              1.652              1.354
 Vibration    13          0.717              1.604              1.233
 Vibration    14          0.722              1.588              1.195
 Vibration    15          0.761              1.482              0.983
 Vibration    16          0.781              1.432              0.900
 Vibration    17          0.784              1.424              0.887
 Vibration    18          0.793              1.401              0.853
 Vibration    19          0.802              1.377              0.818
 Vibration    20          0.814              1.348              0.778
 Vibration    21          0.853              1.255              0.664
 Vibration    22          0.865              1.229              0.635
 Vibration    23          0.878              1.199              0.603
 Vibration    24          0.933              1.081              0.491

 Optimization completed.
    -- Stationary point found.
 Normal termination of Gaussian 16 at Mon Jul 12 17:53:35 2021.

 ----------------------------------------------------------------------
 #p b3lyp/6-31G(d) scrf=(iefpcm,read,solvent=n-octanol) geom=allcheck g
 uess=read
 ----------------------------------------------------------------------

 Structure from the checkpoint file:  "SET_328_BBB65_conf1.geo_060_150.chk"
 ----------------------------------------
 SET_328_BBB65_conf1.geo_060_150 geometry
 ----------------------------------------
 Charge =  1 Multiplicity = 1

 SCF Done:  E(RB3LYP) =  -718.091793101     A.U. after    2 cycles
 Normal termination of Gaussian 16 at Mon Jul 12 17:55:32 2021.

 -----------------------------
 #p B3LYP/6-31G* geom=allcheck
 -----------------------------

 Structure from the checkpoint file:  "SET_328_BBB65_conf1.geo_060_150.chk"
 ----------------------------------------
 SET_328_BBB65_conf1.geo_060_150 geometry
 ----------------------------------------
 Charge =  1 Multiplicity = 1

 SCF Done:  E(RB3LYP) =  -718.017079787     A.U. after   14 cycles
 Normal termination of Gaussian 16 at Mon Jul 12 18:00:16 2021.
 Gaussian 16:  ES64L-G16RevA.03 25-Dec-2016

 --------------------------------------------------------
 #p mp2/aug-cc-pVDZ scf=tight maxdisk=180GB geom=allcheck
 --------------------------------------------------------

 Structure from the checkpoint file:  "SET_328_BBB65_conf1.geo_060_150.chk"
 ----------------------------------------
 SET_328_BBB65_conf1.geo_060_150 geometry
 ----------------------------------------
 Charge =  1 Multiplicity = 1

                         Standard orientation:
 ---------------------------------------------------------------------
 Center     Atomic      Atomic             Coordinates (Angstroms)
 Number     Number       Type             X           Y           Z
 ---------------------------------------------------------------------
      1          6           0        1.289822   -3.513892    0.020889
      2          6           0        1.542660   -2.663867   -1.225287
      3          6           0        0.687104   -1.400162   -1.236992
      4          1           0        0.930901   -0.779212   -2.095224
      5          1           0       -0.379038   -1.626449   -1.257941
      6          1           0        2.601879   -2.389328   -1.295826
      7          1           0        1.306867   -3.220848   -2.136368
      8          1           0        0.272462   -3.920781   -0.011141
      9          1           0        1.973797   -4.365779    0.044762
     10          6           0        1.460694   -2.661684    1.278325
     11          1           0        2.511143   -2.377478    1.408985
     12          1           0        1.176856   -3.220788    2.175501
     13          6           0        0.600597   -1.403185    1.236365
     14          1           0        0.780207   -0.782274    2.112460
     15          1           0       -0.464196   -1.633247    1.181937
     16          7           0        0.904275   -0.564782    0.009529
     17          6           0        0.142809    0.824301   -0.010632
     18          6           0        0.568377    1.635155    1.236890
     19          6           0        2.043324    2.059913    1.272391
     20          6           0        2.452168    2.820903    0.005753
     21          6           0        2.074276    2.045870   -1.263655
     22          6           0        0.592924    1.625922   -1.258708
     23          1           0        0.348043    1.104602   -2.185124
     24          1           0       -0.030336    2.526138   -1.252406
     25          1           0        2.729632    1.174264   -1.386553
     26          1           0        2.249927    2.662695   -2.151378
     27          1           0        3.525528    3.031879    0.018100
     28          1           0        1.939710    3.790924   -0.004809
     29          1           0        2.695991    1.191171    1.427599
     30          1           0        2.192444    2.687753    2.155702
     31          1           0        0.309696    1.116611    2.158240
     32          1           0       -0.058188    2.532225    1.218749
     33          6           0       -1.362866    0.531909   -0.016274
     34          6           0       -2.071556    0.360763   -1.216748
     35          1           0       -1.567831    0.441235   -2.172314
     36          6           0       -3.440807    0.098455   -1.213875
     37          1           0       -3.960681   -0.026265   -2.156957
     38          6           0       -4.137547    0.003840   -0.011113
     39          1           0       -5.203143   -0.197001   -0.009697
     40          6           0       -3.451856    0.177372    1.189560
     41          1           0       -3.979147    0.114959    2.135552
     42          6           0       -2.083230    0.438802    1.184885
     43          1           0       -1.585612    0.581203    2.135694
     44          1           0        1.911810   -0.345232    0.045109
 ---------------------------------------------------------------------

 SCF Done:  E(RHF) =  -713.236936467     A.U. after   16 cycles
 E2 =    -0.2618594939D+01 EUMP2 =    -0.71585553140556D+03

 The electronic state is 1-A.
 Alpha  occ. eigenvalues --  -15.82538 -11.44822 -11.42437 -11.42421 -11.37596
 Alpha  occ. eigenvalues --  -11.37206 -11.37181 -11.36894 -11.36798 -11.36331
 Alpha  occ. eigenvalues --  -11.36247 -11.35989 -11.35673 -11.35628 -11.35577
 Alpha  occ. eigenvalues --  -11.35479 -11.35405 -11.34509  -1.45264  -1.28628
 Alpha  occ. eigenvalues --   -1.25361  -1.21671  -1.18571  -1.17109  -1.14773
 Alpha  occ. eigenvalues --   -1.13252  -1.10903  -1.04952  -1.01525  -0.99230
 Alpha  occ. eigenvalues --   -0.97890  -0.94123  -0.93584  -0.92043  -0.89347
 Alpha  occ. eigenvalues --   -0.84387  -0.82722  -0.81044  -0.79220  -0.77178
 Alpha  occ. eigenvalues --   -0.76162  -0.75580  -0.75229  -0.73064  -0.72824
 Alpha  occ. eigenvalues --   -0.72537  -0.72150  -0.70554  -0.69448  -0.68667
 Alpha  occ. eigenvalues --   -0.68027  -0.66381  -0.65604  -0.65289  -0.64823
 Alpha  occ. eigenvalues --   -0.62238  -0.62000  -0.61420  -0.61037  -0.60673
 Alpha  occ. eigenvalues --   -0.60063  -0.59812  -0.58408  -0.57165  -0.56165
 Alpha  occ. eigenvalues --   -0.45511  -0.45330
 Alpha virt. eigenvalues --   -0.06308  -0.05261  -0.05243  -0.04605  -0.03512
 Alpha virt. eigenvalues --   -0.03261  -0.03226  -0.03145  -0.02922  -0.01683
 Alpha virt. eigenvalues --   -0.01376  -0.01189  -0.01137  -0.01048  -0.00795

 Mulliken charges:
               1
     1  C    0.433086
     2  C    0.570341
     3  C    0.651243
     4  H   -0.273521
     5  H   -0.183700
     6  H   -0.030185
     7  H   -0.087483
     8  H   -0.062602
     9  H   -0.125554
    10  C    0.589338
    11  H   -0.026836
    12  H   -0.087769
    13  C    0.587720
    14  H   -0.254054
    15  H   -0.157538
    16  N   -1.122519
    17  C   -2.694464
    18  C    1.052991
    19  C    0.477512
    20  C    0.588586
    21  C    0.515044
    22  C    1.002918
    23  H   -0.289854
    24  H   -0.131760
    25  H   -0.097569
    26  H   -0.158841
    27  H   -0.145583
    28  H   -0.090858
    29  H   -0.072995
    30  H   -0.156721
    31  H   -0.306897
    32  H   -0.109223
    33  C    1.389827
    34  C    0.876044
    35  H   -0.786641
    36  C   -0.068772
    37  H   -0.541708
    38  C    0.963670
    39  H   -0.416022
    40  C   -0.063762
    41  H   -0.546463
    42  C    0.870425
    43  H   -0.779244
    44  H    0.300393
 Sum of Mulliken charges =   1.00000

 Dipole moment (field-independent basis, Debye):
    X=              2.4135    Y=             -1.9322    Z=              0.0358  Tot=              3.0918
 Quadrupole moment (field-independent basis, Debye-Ang):
   XX=            -86.5304   YY=            -92.6873   ZZ=            -95.8151
   XY=             -0.3902   XZ=             -0.1083   YZ=              0.2389

 Normal termination of Gaussian 16 at Mon Jul 12 19:57:23 2021.
