 Gaussian 16, Revision A.03,

 ---------------------------------------------------------------
 #p b3lyp/6-31G(d) opt freq scrf=(iefpcm,read,solvent=n-octanol)
 ---------------------------------------------------------------

 ---------------------------------------
 SET_328_BBB2_conf1.geo_240_060 geometry
 ---------------------------------------
 Symbolic Z-matrix:
 Charge =  1 Multiplicity = 1

 SCF Done:  E(RB3LYP) =  -1633.63153968     A.U. after   13 cycles
 SCF Done:  E(RB3LYP) =  -1633.65761218     A.U. after   11 cycles
 SCF Done:  E(RB3LYP) =  -1633.64708663     A.U. after   12 cycles
 SCF Done:  E(RB3LYP) =  -1633.67027644     A.U. after   11 cycles
 SCF Done:  E(RB3LYP) =  -1633.67090729     A.U. after   10 cycles
 SCF Done:  E(RB3LYP) =  -1633.67099263     A.U. after   10 cycles
 SCF Done:  E(RB3LYP) =  -1633.67081882     A.U. after   10 cycles
 SCF Done:  E(RB3LYP) =  -1633.67104797     A.U. after   10 cycles
 SCF Done:  E(RB3LYP) =  -1633.67094099     A.U. after   10 cycles
 SCF Done:  E(RB3LYP) =  -1633.67104410     A.U. after   10 cycles
 SCF Done:  E(RB3LYP) =  -1633.67104402     A.U. after    9 cycles
 SCF Done:  E(RB3LYP) =  -1633.67104842     A.U. after    8 cycles
 SCF Done:  E(RB3LYP) =  -1633.67105044     A.U. after   10 cycles
 SCF Done:  E(RB3LYP) =  -1633.67105335     A.U. after    8 cycles
 SCF Done:  E(RB3LYP) =  -1633.67105713     A.U. after    7 cycles
 Optimization completed.
    -- Stationary point found.
 Normal termination of Gaussian 16 at Mon Jul 12 12:37:18 2021.

 --------------------------------------------------------------------
 #P Geom=AllCheck Guess=TCheck SCRF=Check GenChk RB3LYP/6-31G(d) Freq
 --------------------------------------------------------------------

 Structure from the checkpoint file:  "SET_328_BBB2_conf1.geo_240_060.chk"
 ---------------------------------------
 SET_328_BBB2_conf1.geo_240_060 geometry
 ---------------------------------------
 Charge =  1 Multiplicity = 1

 SCF Done:  E(RB3LYP) =  -1633.67105713     A.U. after    1 cycles

  Exact polarizability: 311.401  -0.016 222.231 -23.381  14.036 188.838
 Approx polarizability: 355.365   1.328 280.677 -32.409  28.051 254.272

                      1                      2                      3
                      A                      A                      A
 Frequencies --     20.4153                36.4312                44.1495
 Red. masses --      7.0556                 4.8496                 6.4609
 Frc consts  --      0.0017                 0.0038                 0.0074
 IR Inten    --      1.8658                 2.3685                 1.4877

                      4                      5                      6
                      A                      A                      A
 Frequencies --     65.9399                89.5119               124.0827
 Red. masses --      3.7968                 3.4267                 5.8149
 Frc consts  --      0.0097                 0.0162                 0.0527
 IR Inten    --      0.7162                 2.4735                 0.1061

                      7                      8                      9
                      A                      A                      A
 Frequencies --    137.0944               176.2002               198.9083
 Red. masses --      4.6315                 1.8233                12.5495
 Frc consts  --      0.0513                 0.0334                 0.2925
 IR Inten    --      1.9345                 1.3117                 0.5949

                     10                     11                     12
                      A                      A                      A
 Frequencies --    202.4428               212.7646               230.0059
 Red. masses --      3.7787                 2.8172                 2.6584
 Frc consts  --      0.0912                 0.0751                 0.0829
 IR Inten    --      0.3523                 1.5672                 3.7594

                     13                     14                     15
                      A                      A                      A
 Frequencies --    249.0747               305.4968               321.5742
 Red. masses --      2.9079                 2.5752                 4.4634
 Frc consts  --      0.1063                 0.1416                 0.2719
 IR Inten    --      0.2991                 3.6541                 2.5046

                     16                     17                     18
                      A                      A                      A
 Frequencies --    343.7518               371.3857               403.0846
 Red. masses --      3.7040                 4.7532                 3.7151
 Frc consts  --      0.2579                 0.3863                 0.3556
 IR Inten    --      6.4410                 1.4330                 3.1039

                     19                     20                     21
                      A                      A                      A
 Frequencies --    432.4858               447.2997               450.6448
 Red. masses --      4.5719                 3.7885                 4.7035
 Frc consts  --      0.5038                 0.4466                 0.5628
 IR Inten    --      0.5497                 2.9671                 0.7124

                     22                     23                     24
                      A                      A                      A
 Frequencies --    459.2917               472.0060               481.7414
 Red. masses --      3.2688                 4.4903                 4.5647
 Frc consts  --      0.4063                 0.5894                 0.6241
 IR Inten    --     10.1992                 1.9560                13.2909

                     25                     26                     27
                      A                      A                      A
 Frequencies --    521.3740               556.3388               601.3525
 Red. masses --      4.7640                 2.9792                 4.5096
 Frc consts  --      0.7630                 0.5433                 0.9608
 IR Inten    --      5.7104                 9.2321                 8.6025

                     28                     29                     30
                      A                      A                      A
 Frequencies --    627.3203               635.3653               687.7842
 Red. masses --      4.1956                 3.4330                 6.6931
 Frc consts  --      0.9728                 0.8165                 1.8655
 IR Inten    --      9.3132                 1.6253                14.2731

                     31                     32                     33
                      A                      A                      A
 Frequencies --    696.7707               716.2600               738.3065
 Red. masses --      4.4341                 3.6876                 3.6653
 Frc consts  --      1.2683                 1.1147                 1.1772
 IR Inten    --      4.3997                 7.1395                29.8902

                     34                     35                     36
                      A                      A                      A
 Frequencies --    771.5687               792.5978               807.6312
 Red. masses --      1.8314                 2.1920                 3.2017
 Frc consts  --      0.6424                 0.8113                 1.2304
 IR Inten    --     20.4832                10.9806                13.1275

                     37                     38                     39
                      A                      A                      A
 Frequencies --    835.2990               846.8962               887.4495
 Red. masses --      1.4293                 2.1318                 1.4818
 Frc consts  --      0.5876                 0.9009                 0.6876
 IR Inten    --     23.3657                 8.9595                 3.5315

                     40                     41                     42
                      A                      A                      A
 Frequencies --    891.1659               901.3820               907.0143
 Red. masses --      1.6125                 1.3187                 2.7021
 Frc consts  --      0.7545                 0.6313                 1.3097
 IR Inten    --     12.6666                41.6866                23.0430

                     43                     44                     45
                      A                      A                      A
 Frequencies --    941.6337               962.1136               966.4534
 Red. masses --      2.1456                 1.3667                 1.4072
 Frc consts  --      1.1209                 0.7454                 0.7744
 IR Inten    --      2.2397                 1.3385                 2.2095

                     46                     47                     48
                      A                      A                      A
 Frequencies --    976.2140              1008.3492              1009.0307
 Red. masses --      2.6834                 2.7170                 1.6203
 Frc consts  --      1.5067                 1.6277                 0.9720
 IR Inten    --     26.0392                24.6674                16.3629

                     49                     50                     51
                      A                      A                      A
 Frequencies --   1029.0612              1041.6217              1073.9549
 Red. masses --      2.2277                 5.0994                 2.0617
 Frc consts  --      1.3899                 3.2598                 1.4010
 IR Inten    --      1.3053                52.1186                 0.5812

                     52                     53                     54
                      A                      A                      A
 Frequencies --   1080.1910              1103.8321              1143.4863
 Red. masses --      2.6625                 1.9349                 2.1657
 Frc consts  --      1.8304                 1.3891                 1.6684
 IR Inten    --      5.4112                 3.5829                19.6871

                     55                     56                     57
                      A                      A                      A
 Frequencies --   1151.5399              1152.9933              1168.3916
 Red. masses --      2.0920                 1.4050                 1.4861
 Frc consts  --      1.6345                 1.1005                 1.1953
 IR Inten    --     53.0850                 6.1187                19.6061

                     58                     59                     60
                      A                      A                      A
 Frequencies --   1177.3628              1199.4955              1203.9440
 Red. masses --      1.3586                 1.6147                 1.2617
 Frc consts  --      1.1096                 1.3688                 1.0775
 IR Inten    --      5.5526                 5.6820                 1.2669

                     61                     62                     63
                      A                      A                      A
 Frequencies --   1227.4848              1232.6222              1252.4002
 Red. masses --      2.3034                 2.3570                 1.5746
 Frc consts  --      2.0448                 2.1099                 1.4551
 IR Inten    --     12.8571                 9.5767                 7.3156

                     64                     65                     66
                      A                      A                      A
 Frequencies --   1264.9267              1279.2503              1308.6402
 Red. masses --      1.3037                 1.4202                 2.7097
 Frc consts  --      1.2290                 1.3693                 2.7341
 IR Inten    --      3.2948                 9.4264                 7.1029

                     67                     68                     69
                      A                      A                      A
 Frequencies --   1328.7394              1341.8113              1349.4818
 Red. masses --      1.4622                 1.7783                 3.0382
 Frc consts  --      1.5210                 1.8865                 3.2599
 IR Inten    --      1.5706                 7.2896                 2.6617

                     70                     71                     72
                      A                      A                      A
 Frequencies --   1357.2296              1364.1369              1375.2033
 Red. masses --      1.8901                 1.6130                 1.2097
 Frc consts  --      2.0514                 1.7684                 1.3479
 IR Inten    --     26.3526                 7.3032                 7.9436

                     73                     74                     75
                      A                      A                      A
 Frequencies --   1397.2407              1412.5188              1436.0333
 Red. masses --      1.4935                 1.4080                 1.3042
 Frc consts  --      1.7179                 1.6551                 1.5846
 IR Inten    --      6.0197                13.9512                 5.1834

                     76                     77                     78
                      A                      A                      A
 Frequencies --   1441.4079              1452.1200              1494.3182
 Red. masses --      2.3656                 1.1588                 1.7547
 Frc consts  --      2.8958                 1.4397                 2.3086
 IR Inten    --     32.4747                11.0352                21.1861

                     79                     80                     81
                      A                      A                      A
 Frequencies --   1502.8299              1511.8135              1514.2834
 Red. masses --      1.4488                 2.0534                 1.1548
 Frc consts  --      1.9279                 2.7651                 1.5601
 IR Inten    --     46.4525                62.2073                29.9262

                     82                     83                     84
                      A                      A                      A
 Frequencies --   1517.4038              1527.3086              1528.6763
 Red. masses --      1.1402                 1.0997                 1.0810
 Frc consts  --      1.5468                 1.5114                 1.4883
 IR Inten    --     17.1671                 6.8833                31.0481

                     85                     86                     87
                      A                      A                      A
 Frequencies --   1544.9872              1615.9082              1633.3872
 Red. masses --      2.1689                 6.8386                 6.0962
 Frc consts  --      3.0503                10.5209                 9.5827
 IR Inten    --     17.3574                12.5390                 1.7782

                     88                     89                     90
                      A                      A                      A
 Frequencies --   1644.9072              1662.2257              1723.8393
 Red. masses --      6.2667                 4.8008                 1.0878
 Frc consts  --      9.9902                 7.8153                 1.9046
 IR Inten    --      2.3542                12.1344               187.8703

                     91                     92                     93
                      A                      A                      A
 Frequencies --   3032.2352              3075.2369              3080.8950
 Red. masses --      1.0826                 1.0672                 1.0615
 Frc consts  --      5.8644                 5.9462                 5.9362
 IR Inten    --     19.7505                13.1273                42.1875

                     94                     95                     96
                      A                      A                      A
 Frequencies --   3098.6793              3129.4026              3131.1971
 Red. masses --      1.0852                 1.0678                 1.0714
 Frc consts  --      6.1393                 6.1614                 6.1890
 IR Inten    --      6.2198                20.5385                25.1366

                     97                     98                     99
                      A                      A                      A
 Frequencies --   3132.7273              3197.4225              3209.8420
 Red. masses --      1.0898                 1.0879                 1.0875
 Frc consts  --      6.3012                 6.5529                 6.6015
 IR Inten    --     36.0445                29.0333                 2.7668

                    100                    101                    102
                      A                      A                      A
 Frequencies --   3215.7706              3221.3193              3224.1383
 Red. masses --      1.0896                 1.0922                 1.1081
 Frc consts  --      6.6389                 6.6779                 6.7867
 IR Inten    --      9.3096                23.6002                 2.0740

                    103                    104                    105
                      A                      A                      A
 Frequencies --   3227.2909              3233.1709              3238.0493
 Red. masses --      1.0910                 1.0975                 1.1089
 Frc consts  --      6.6949                 6.7597                 6.8500
 IR Inten    --      1.7647                24.4193                 2.6443

                    106                    107                    108
                      A                      A                      A
 Frequencies --   3244.5663              3396.8140              3452.6936
 Red. masses --      1.0935                 1.0631                 1.0868
 Frc consts  --      6.7825                 7.2272                 7.6337
 IR Inten    --      3.3816               177.8788               127.4058

 - Thermochemistry -
 -------------------
 Temperature   298.150 Kelvin.  Pressure   1.00000 Atm.
 Atom     1 has atomic number  6 and mass  12.00000

 Molecular mass:   306.08163 amu.
 Principal axes and moments of inertia in atomic units:
                           1         2         3
     Eigenvalues --  3007.54842********************
           X            0.99997   0.00317  -0.00634
           Y           -0.00340   0.99935  -0.03601
           Z            0.00622   0.03603   0.99933
 This molecule is an asymmetric top.
 Rotational symmetry number  1.
 Warning -- assumption of classical behavior for rotation
           may cause significant error
 Rotational temperatures (Kelvin)      0.02880     0.00663     0.00621
 Rotational constants (GHZ):           0.60007     0.13812     0.12935
 Zero-point vibrational energy     836619.8 (Joules/Mol)
                                  199.95694 (Kcal/Mol)
 Warning -- explicit consideration of  27 degrees of freedom as
           vibrations may cause significant error
 Vibrational temperatures:     29.37    52.42    63.52    94.87   128.79
          (Kelvin)            178.53   197.25   253.51   286.18   291.27
                              306.12   330.93   358.36   439.54   462.67
                              494.58   534.34   579.95   622.25   643.56
                              648.38   660.82   679.11   693.12   750.14
                              800.45   865.21   902.57   914.15   989.57
                             1002.50  1030.54  1062.26  1110.12  1140.37
                             1162.00  1201.81  1218.49  1276.84  1282.19
                             1296.89  1304.99  1354.80  1384.27  1390.51
                             1404.55  1450.79  1451.77  1480.59  1498.66
                             1545.18  1554.15  1588.17  1645.22  1656.81
                             1658.90  1681.05  1693.96  1725.81  1732.21
                             1766.08  1773.47  1801.92  1819.95  1840.56
                             1882.84  1911.76  1930.57  1941.60  1952.75
                             1962.69  1978.61  2010.32  2032.30  2066.13
                             2073.86  2089.28  2149.99  2162.24  2175.16
                             2178.72  2183.21  2197.46  2199.42  2222.89
                             2324.93  2350.08  2366.65  2391.57  2480.22
                             4362.71  4424.58  4432.72  4458.31  4502.51
                             4505.09  4507.30  4600.38  4618.25  4626.78
                             4634.76  4638.82  4643.35  4651.81  4658.83
                             4668.21  4887.26  4967.66

 Zero-point correction=                           0.318652 (Hartree/Particle)
 Thermal correction to Energy=                    0.336244
 Thermal correction to Enthalpy=                  0.337189
 Thermal correction to Gibbs Free Energy=         0.271423
 Sum of electronic and zero-point Energies=          -1633.352405
 Sum of electronic and thermal Energies=             -1633.334813
 Sum of electronic and thermal Enthalpies=           -1633.333869
 Sum of electronic and thermal Free Energies=        -1633.399635

                     E (Thermal)             CV                S
                      KCal/Mol        Cal/Mol-Kelvin    Cal/Mol-Kelvin
 Total                  210.997             68.859            138.416
 Electronic               0.000              0.000              0.000
 Translational            0.889              2.981             43.053
 Rotational               0.889              2.981             34.660
 Vibrational            209.219             62.898             60.704
 Vibration     1          0.593              1.986              6.593
 Vibration     2          0.594              1.982              5.444
 Vibration     3          0.595              1.980              5.064
 Vibration     4          0.597              1.971              4.271
 Vibration     5          0.602              1.957              3.671
 Vibration     6          0.610              1.929              3.036
 Vibration     7          0.614              1.916              2.844
 Vibration     8          0.628              1.872              2.368
 Vibration     9          0.637              1.841              2.143
 Vibration    10          0.639              1.836              2.111
 Vibration    11          0.644              1.821              2.020
 Vibration    12          0.652              1.795              1.879
 Vibration    13          0.662              1.764              1.737
 Vibration    14          0.696              1.663              1.387
 Vibration    15          0.707              1.632              1.302
 Vibration    16          0.722              1.588              1.195
 Vibration    17          0.743              1.531              1.074
 Vibration    18          0.768              1.463              0.951
 Vibration    19          0.793              1.399              0.851
 Vibration    20          0.806              1.367              0.804
 Vibration    21          0.809              1.359              0.794
 Vibration    22          0.817              1.340              0.768
 Vibration    23          0.829              1.312              0.732
 Vibration    24          0.838              1.291              0.705
 Vibration    25          0.876              1.203              0.607
 Vibration    26          0.912              1.126              0.531
 Vibration    27          0.960              1.029              0.447

                           ! Non-Optimized Parameters !
 Normal termination of Gaussian 16 at Mon Jul 12 13:31:16 2021.

 ----------------------------------------------------------------------
 #p b3lyp/6-31G(d) scrf=(iefpcm,read,solvent=n-octanol) geom=allcheck g
 uess=read
 ----------------------------------------------------------------------

 Structure from the checkpoint file:  "SET_328_BBB2_conf1.geo_240_060.chk"
 ---------------------------------------
 SET_328_BBB2_conf1.geo_240_060 geometry
 ---------------------------------------
 Charge =  1 Multiplicity = 1

 SCF Done:  E(RB3LYP) =  -1633.67511193     A.U. after    2 cycles
 Normal termination of Gaussian 16 at Mon Jul 12 13:32:50 2021.

 -----------------------------
 #p B3LYP/6-31G* geom=allcheck
 -----------------------------

 Structure from the checkpoint file:  "SET_328_BBB2_conf1.geo_240_060.chk"
 ---------------------------------------
 SET_328_BBB2_conf1.geo_240_060 geometry
 ---------------------------------------
 Charge =  1 Multiplicity = 1

 SCF Done:  E(RB3LYP) =  -1633.56919424     A.U. after   15 cycles
 Normal termination of Gaussian 16 at Mon Jul 12 13:36:15 2021.
 Gaussian 16:  ES64L-G16RevA.03 25-Dec-2016

 --------------------------------------------------------
 #p mp2/aug-cc-pVDZ scf=tight maxdisk=180GB geom=allcheck
 --------------------------------------------------------

 Structure from the checkpoint file:  "SET_328_BBB2_conf1.geo_240_060.chk"
 ---------------------------------------
 SET_328_BBB2_conf1.geo_240_060 geometry
 ---------------------------------------
 Charge =  1 Multiplicity = 1

                         Standard orientation:
 ---------------------------------------------------------------------
 Center     Atomic      Atomic             Coordinates (Angstroms)
 Number     Number       Type             X           Y           Z
 ---------------------------------------------------------------------
      1          6           0       -5.180443   -0.952659   -0.710674
      2          1           0       -4.684402   -1.823429   -1.132068
      3          1           0       -4.861536   -0.049290   -1.223549
      4          1           0       -6.260650   -1.070976   -0.771788
      5          7           0       -4.805100   -0.830252    0.736461
      6          1           0       -5.132072   -1.665087    1.248978
      7          6           0       -3.304858   -0.651499    1.028697
      8          6           0       -2.720593    0.499578    0.225184
      9          6           0       -1.499797    0.364224   -0.466377
     10          6           0       -1.027060    1.456611   -1.209978
     11          6           0       -1.718627    2.662644   -1.255581
     12          6           0       -2.899595    2.809936   -0.527806
     13          6           0       -3.384995    1.735605    0.209459
     14          1           0       -4.293282    1.874161    0.787235
     15          1           0       -3.435961    3.751958   -0.529644
     16          1           0       -1.328880    3.488471   -1.841045
     17          1           0       -0.091684    1.354138   -1.750169
     18          1           0       -3.285054   -0.402890    2.093161
     19          6           0       -2.603083   -1.993120    0.811905
     20          1           0       -2.926366   -2.441134   -0.134053
     21          1           0       -2.887261   -2.684433    1.610272
     22          6           0       -1.091793   -1.802268    0.773380
     23          1           0       -0.597286   -2.773775    0.706127
     24          1           0       -0.746770   -1.336631    1.702708
     25          6           0       -0.687902   -0.932529   -0.429013
     26          1           0       -0.928311   -1.504124   -1.335490
     27          6           0        0.817254   -0.718444   -0.445330
     28          6           0        1.449147    0.073865    0.519078
     29          1           0        0.870432    0.599618    1.269227
     30          6           0        2.834671    0.215344    0.530747
     31         17           0        3.563994    1.221012    1.759973
     32          6           0        3.615723   -0.439817   -0.429305
     33         17           0        5.354967   -0.287236   -0.448632
     34          6           0        2.994100   -1.229726   -1.394321
     35          1           0        3.602226   -1.732434   -2.136326
     36          6           0        1.608223   -1.364937   -1.399228
     37          1           0        1.135377   -1.983427   -2.154347
     38          1           0       -5.337375   -0.059987    1.157712
 ---------------------------------------------------------------------

 SCF Done:  E(RHF) =  -1627.57007939     A.U. after   17 cycles
 E2 =    -0.2826403097D+01 EUMP2 =    -0.16303964824834D+04

 The electronic state is 1-A.
 Alpha  occ. eigenvalues -- -104.91994-104.91585 -15.86849 -11.46539 -11.45387
 Alpha  occ. eigenvalues --  -11.40512 -11.40119 -11.39087 -11.39072 -11.38364
 Alpha  occ. eigenvalues --  -11.37892 -11.37566 -11.36643 -11.36627 -11.36443
 Alpha  occ. eigenvalues --  -11.36084 -11.35894 -11.35063 -11.34862 -11.34631
 Alpha  occ. eigenvalues --  -10.64556 -10.64148  -8.11338  -8.10990  -8.10982
 Alpha  occ. eigenvalues --   -8.10932  -8.10579  -8.10572  -1.48626  -1.30919
 Alpha  occ. eigenvalues --   -1.29583  -1.24612  -1.22303  -1.21210  -1.17981
 Alpha  occ. eigenvalues --   -1.14975  -1.14002  -1.12132  -1.10104  -1.07397
 Alpha  occ. eigenvalues --   -1.01151  -0.98852  -0.95804  -0.93893  -0.92414
 Alpha  occ. eigenvalues --   -0.90450  -0.88993  -0.87908  -0.83387  -0.79961
 Alpha  occ. eigenvalues --   -0.78915  -0.78270  -0.77228  -0.75805  -0.74443
 Alpha  occ. eigenvalues --   -0.73409  -0.73142  -0.72446  -0.71849  -0.69898
 Alpha  occ. eigenvalues --   -0.68917  -0.68299  -0.67656  -0.66742  -0.65097
 Alpha  occ. eigenvalues --   -0.64295  -0.63191  -0.62245  -0.61748  -0.60286
 Alpha  occ. eigenvalues --   -0.59258  -0.58768  -0.56076  -0.54522  -0.54377
 Alpha  occ. eigenvalues --   -0.51992  -0.46654  -0.45918  -0.43204  -0.41836
 Alpha virt. eigenvalues --   -0.09360  -0.06825  -0.06445  -0.05426  -0.04061
 Alpha virt. eigenvalues --   -0.03806  -0.03552  -0.03164  -0.02739  -0.02420
 Alpha virt. eigenvalues --   -0.01636  -0.01480  -0.01041  -0.00825  -0.00549

 Mulliken charges:
               1
     1  C    0.914019
     2  H   -0.095870
     3  H    0.004444
     4  H   -0.169332
     5  N   -0.652597
     6  H    0.172048
     7  C    0.608339
     8  C   -0.545202
     9  C   -0.095989
    10  C    0.554450
    11  C    0.330000
    12  C    0.469439
    13  C    0.642149
    14  H   -0.721496
    15  H   -0.500944
    16  H   -0.488571
    17  H   -0.593412
    18  H   -0.136860
    19  C    0.863928
    20  H   -0.229446
    21  H   -0.067564
    22  C    0.812374
    23  H   -0.173041
    24  H   -0.226969
    25  C    0.009830
    26  H   -0.270930
    27  C    1.826987
    28  C    1.271221
    29  H   -0.739980
    30  C   -0.578047
    31  Cl  -0.340311
    32  C   -0.477776
    33  Cl  -0.329194
    34  C    0.593993
    35  H   -0.437952
    36  C    0.427480
    37  H   -0.764716
    38  H    0.135496
 Sum of Mulliken charges =   1.00000

 Dipole moment (field-independent basis, Debye):
    X=            -20.4490    Y=             -3.8934    Z=              0.5979  Tot=             20.8249
 Quadrupole moment (field-independent basis, Debye-Ang):
   XX=            -38.0759   YY=           -113.6754   ZZ=           -121.6665
   XY=             11.1926   XZ=            -16.6949   YZ=             -2.2685

 Normal termination of Gaussian 16 at Mon Jul 12 15:14:27 2021.
