 Gaussian 16, Revision A.03,

 ---------------------------------------------------------------
 #p b3lyp/6-31G(d) opt freq scrf=(iefpcm,read,solvent=n-octanol)
 ---------------------------------------------------------------

 -----------------------------------------
 SET_328_BBB286_conf1.geo_000_090 geometry
 -----------------------------------------
 Symbolic Z-matrix:
 Charge =  1 Multiplicity = 1

 SCF Done:  E(RB3LYP) =  -995.017173052     A.U. after   13 cycles
 SCF Done:  E(RB3LYP) =  -995.055293231     A.U. after   11 cycles
 SCF Done:  E(RB3LYP) =  -995.063776607     A.U. after   12 cycles
 SCF Done:  E(RB3LYP) =  -995.081282427     A.U. after   11 cycles
 SCF Done:  E(RB3LYP) =  -995.083280309     A.U. after   11 cycles
 SCF Done:  E(RB3LYP) =  -995.084651439     A.U. after   11 cycles
 SCF Done:  E(RB3LYP) =  -995.085652001     A.U. after   10 cycles
 SCF Done:  E(RB3LYP) =  -995.086177432     A.U. after   11 cycles
 SCF Done:  E(RB3LYP) =  -995.086491115     A.U. after   12 cycles
 SCF Done:  E(RB3LYP) =  -995.086989997     A.U. after   11 cycles
 SCF Done:  E(RB3LYP) =  -995.087671877     A.U. after    4 cycles
 SCF Done:  E(RB3LYP) =  -995.087671851     A.U. after    4 cycles
 SCF Done:  E(RB3LYP) =  -995.087671843     A.U. after    2 cycles
 SCF Done:  E(RB3LYP) =  -995.087671841     A.U. after    2 cycles
 SCF Done:  E(RB3LYP) =  -995.087587361     A.U. after   10 cycles
 SCF Done:  E(RB3LYP) =  -995.087591430     A.U. after    8 cycles
 Optimization completed.
    -- Stationary point found.
 Normal termination of Gaussian 16 at Mon Jul 12 16:38:54 2021.

 --------------------------------------------------------------------
 #P Geom=AllCheck Guess=TCheck SCRF=Check GenChk RB3LYP/6-31G(d) Freq
 --------------------------------------------------------------------

 Structure from the checkpoint file:  "SET_328_BBB286_conf1.geo_000_090.chk"
 -----------------------------------------
 SET_328_BBB286_conf1.geo_000_090 geometry
 -----------------------------------------
 Charge =  1 Multiplicity = 1

 SCF Done:  E(RB3LYP) =  -995.087591430     A.U. after    1 cycles

  Exact polarizability: 331.118  -0.599 275.964  25.238 -10.018 166.181
 Approx polarizability: 371.236  -3.094 369.934  31.344 -17.552 205.437

                      1                      2                      3
                      A                      A                      A
 Frequencies --     30.4428                33.4317                44.6985
 Red. masses --      4.2994                 4.2292                 4.8694
 Frc consts  --      0.0023                 0.0028                 0.0057
 IR Inten    --      3.1474                 0.3129                 7.1310

                      4                      5                      6
                      A                      A                      A
 Frequencies --     80.0313                84.3230               103.3158
 Red. masses --      5.2301                 1.1466                 3.2909
 Frc consts  --      0.0197                 0.0048                 0.0207
 IR Inten    --      5.5189                 0.1288                 2.5217

                      7                      8                      9
                      A                      A                      A
 Frequencies --    127.2493               140.6447               144.5627
 Red. masses --      4.2090                 3.3028                 2.7467
 Frc consts  --      0.0402                 0.0385                 0.0338
 IR Inten    --      1.6875                 1.0186                 3.7750

                     10                     11                     12
                      A                      A                      A
 Frequencies --    172.8807               202.1092               242.1542
 Red. masses --      4.0132                 4.7621                 3.4291
 Frc consts  --      0.0707                 0.1146                 0.1185
 IR Inten    --      0.8096                27.7266                 0.9720

                     13                     14                     15
                      A                      A                      A
 Frequencies --    244.6119               249.2319               264.0442
 Red. masses --      1.2435                 3.8421                 3.0283
 Frc consts  --      0.0438                 0.1406                 0.1244
 IR Inten    --      0.1917                 1.2059                 4.3458

                     16                     17                     18
                      A                      A                      A
 Frequencies --    301.0672               313.0069               323.7812
 Red. masses --      2.7286                 3.2329                 5.1785
 Frc consts  --      0.1457                 0.1866                 0.3199
 IR Inten    --      0.7622                18.1077                 4.2581

                     19                     20                     21
                      A                      A                      A
 Frequencies --    369.1723               372.2905               387.8642
 Red. masses --      2.4940                 2.0533                 2.6612
 Frc consts  --      0.2003                 0.1677                 0.2359
 IR Inten    --      1.9446                 3.0286                 3.6787

                     22                     23                     24
                      A                      A                      A
 Frequencies --    417.4395               424.4061               439.6652
 Red. masses --      3.9443                 3.3221                 2.7950
 Frc consts  --      0.4050                 0.3526                 0.3183
 IR Inten    --      4.5300                 8.8489                 1.9457

                     25                     26                     27
                      A                      A                      A
 Frequencies --    446.7484               463.1355               542.1280
 Red. masses --      3.1376                 3.2121                 1.9017
 Frc consts  --      0.3690                 0.4059                 0.3293
 IR Inten    --      1.2754                 2.9901                77.0609

                     28                     29                     30
                      A                      A                      A
 Frequencies --    546.3163               557.3623               579.1238
 Red. masses --      5.7785                 1.6386                 3.9844
 Frc consts  --      1.0161                 0.2999                 0.7873
 IR Inten    --      5.3538                81.4154                 0.2601

                     31                     32                     33
                      A                      A                      A
 Frequencies --    588.4932               608.3299               619.3877
 Red. masses --      4.6070                 2.7829                 4.2585
 Frc consts  --      0.9401                 0.6068                 0.9626
 IR Inten    --      7.2445                12.9013                 5.1471

                     34                     35                     36
                      A                      A                      A
 Frequencies --    641.2109               652.9276               708.2286
 Red. masses --      4.6728                 4.4130                 3.6169
 Frc consts  --      1.1320                 1.1085                 1.0689
 IR Inten    --      2.1627                 3.8337                11.7609

                     37                     38                     39
                      A                      A                      A
 Frequencies --    751.7347               761.3429               768.5466
 Red. masses --      4.0089                 4.0578                 2.6258
 Frc consts  --      1.3348                 1.3858                 0.9138
 IR Inten    --      0.3635                 5.9225                 1.0380

                     40                     41                     42
                      A                      A                      A
 Frequencies --    772.1704               779.7879               795.1692
 Red. masses --      1.5279                 3.1898                 5.1896
 Frc consts  --      0.5367                 1.1428                 1.9333
 IR Inten    --     67.9243                 2.8561                 6.2256

                     43                     44                     45
                      A                      A                      A
 Frequencies --    796.2378               833.3732               841.9850
 Red. masses --      5.7665                 3.2896                 2.9913
 Frc consts  --      2.1540                 1.3461                 1.2495
 IR Inten    --     40.7788                26.3981                 1.5068

                     46                     47                     48
                      A                      A                      A
 Frequencies --    858.8175               876.8576               882.8830
 Red. masses --      1.5662                 1.4508                 2.3709
 Frc consts  --      0.6806                 0.6572                 1.0889
 IR Inten    --      1.5165                 0.0983                 3.4010

                     49                     50                     51
                      A                      A                      A
 Frequencies --    901.9174               932.6445               958.5931
 Red. masses --      3.3502                 2.4657                 2.1458
 Frc consts  --      1.6056                 1.2636                 1.1617
 IR Inten    --     54.6624                 1.2840                 3.4198

                     52                     53                     54
                      A                      A                      A
 Frequencies --    961.4305               965.0481               996.1999
 Red. masses --      1.3286                 2.4148                 2.1621
 Frc consts  --      0.7235                 1.3250                 1.2642
 IR Inten    --      0.9061                21.8774                21.0494

                     55                     56                     57
                      A                      A                      A
 Frequencies --   1000.8556              1017.7575              1027.3407
 Red. masses --      1.2586                 2.7777                 3.2256
 Frc consts  --      0.7428                 1.6952                 2.0058
 IR Inten    --      0.0470                18.3109                 3.1698

                     58                     59                     60
                      A                      A                      A
 Frequencies --   1033.4896              1054.2558              1074.0081
 Red. masses --      2.0830                 2.3638                 2.4562
 Frc consts  --      1.3108                 1.5479                 1.6693
 IR Inten    --     15.8106                11.1456                48.4427

                     61                     62                     63
                      A                      A                      A
 Frequencies --   1079.5051              1100.6140              1111.2104
 Red. masses --      4.3087                 1.8780                 1.6412
 Frc consts  --      2.9583                 1.3404                 1.1940
 IR Inten    --     15.6123                 3.3208                13.5593

                     64                     65                     66
                      A                      A                      A
 Frequencies --   1140.4641              1144.4490              1154.3147
 Red. masses --      2.0355                 1.6977                 1.2648
 Frc consts  --      1.5598                 1.3101                 0.9929
 IR Inten    --     16.7323                38.5867                 5.1234

                     67                     68                     69
                      A                      A                      A
 Frequencies --   1156.4689              1159.6892              1164.2832
 Red. masses --      1.5107                 1.2945                 1.8144
 Frc consts  --      1.1904                 1.0257                 1.4491
 IR Inten    --     10.1128                 0.6704                21.1180

                     70                     71                     72
                      A                      A                      A
 Frequencies --   1178.5107              1194.8856              1203.0286
 Red. masses --      1.5130                 1.2944                 1.0845
 Frc consts  --      1.2381                 1.0888                 0.9248
 IR Inten    --     10.3906                82.3674                 1.6434

                     73                     74                     75
                      A                      A                      A
 Frequencies --   1209.9738              1243.1569              1267.8816
 Red. masses --      1.4666                 2.0311                 1.7141
 Frc consts  --      1.2651                 1.8494                 1.6235
 IR Inten    --      4.1768               152.0246                 9.1568

                     76                     77                     78
                      A                      A                      A
 Frequencies --   1292.7385              1303.9256              1307.9786
 Red. masses --      1.6655                 1.3069                 1.2468
 Frc consts  --      1.6399                 1.3092                 1.2567
 IR Inten    --      7.2968                31.6685                12.1997

                     79                     80                     81
                      A                      A                      A
 Frequencies --   1310.8025              1346.2904              1349.3504
 Red. masses --      1.3200                 3.3482                 1.4229
 Frc consts  --      1.3363                 3.5755                 1.5264
 IR Inten    --     44.5459                77.8325                 8.2504

                     82                     83                     84
                      A                      A                      A
 Frequencies --   1362.0926              1371.6656              1384.5736
 Red. masses --      1.9389                 1.4402                 1.3352
 Frc consts  --      2.1194                 1.5965                 1.5080
 IR Inten    --     16.4459                 0.6179                11.9116

                     85                     86                     87
                      A                      A                      A
 Frequencies --   1396.5095              1406.0479              1407.1761
 Red. masses --      1.2808                 1.4048                 2.8381
 Frc consts  --      1.4717                 1.6363                 3.3111
 IR Inten    --     74.1297                 4.4058                 9.8151

                     88                     89                     90
                      A                      A                      A
 Frequencies --   1410.4322              1412.3491              1420.1005
 Red. masses --      3.6063                 1.4979                 1.3959
 Frc consts  --      4.2268                 1.7604                 1.6586
 IR Inten    --     12.0197                17.9197                 4.7465

                     91                     92                     93
                      A                      A                      A
 Frequencies --   1425.2875              1427.6709              1443.6366
 Red. masses --      1.3679                 1.3302                 2.9354
 Frc consts  --      1.6372                 1.5974                 3.6044
 IR Inten    --     11.0577                 7.8441                58.9971

                     94                     95                     96
                      A                      A                      A
 Frequencies --   1446.0938              1460.6427              1477.0242
 Red. masses --      2.8169                 1.2167                 1.2828
 Frc consts  --      3.4707                 1.5294                 1.6489
 IR Inten    --     21.5223                 3.1797                33.5394

                     97                     98                     99
                      A                      A                      A
 Frequencies --   1481.5781              1498.2691              1500.7985
 Red. masses --      1.5652                 1.1484                 1.1085
 Frc consts  --      2.0242                 1.5189                 1.4710
 IR Inten    --      5.5351               116.5577                19.5014

                    100                    101                    102
                      A                      A                      A
 Frequencies --   1506.4426              1509.4013              1515.4909
 Red. masses --      1.0423                 1.0912                 2.1289
 Frc consts  --      1.3937                 1.4648                 2.8808
 IR Inten    --     13.4902                38.9770                15.2906

                    103                    104                    105
                      A                      A                      A
 Frequencies --   1522.5903              1529.8238              1533.3951
 Red. masses --      1.2132                 1.2527                 1.2163
 Frc consts  --      1.6571                 1.7273                 1.6850
 IR Inten    --     77.7165                74.8311                 1.8615

                    106                    107                    108
                      A                      A                      A
 Frequencies --   1535.8255              1545.9860              1547.6110
 Red. masses --      1.1110                 1.7393                 1.1549
 Frc consts  --      1.5440                 2.4493                 1.6298
 IR Inten    --      2.6324               127.7593                13.4202

                    109                    110                    111
                      A                      A                      A
 Frequencies --   1566.9916              1594.0685              1631.5018
 Red. masses --      2.3614                 1.1154                 6.4883
 Frc consts  --      3.4163                 1.6698                10.1755
 IR Inten    --    449.6053                39.6006                12.9054

                    112                    113                    114
                      A                      A                      A
 Frequencies --   1676.7190              1735.6727              3066.0445
 Red. masses --      6.9108                 9.5028                 1.0827
 Frc consts  --     11.4473                16.8669                 5.9965
 IR Inten    --      6.4220               316.7621                22.5234

                    115                    116                    117
                      A                      A                      A
 Frequencies --   3066.5440              3083.8903              3084.8414
 Red. masses --      1.0699                 1.0639                 1.0348
 Frc consts  --      5.9276                 5.9613                 5.8021
 IR Inten    --     31.8867                26.4141                59.0499

                    118                    119                    120
                      A                      A                      A
 Frequencies --   3092.7781              3097.9946              3112.8127
 Red. masses --      1.0652                 1.0712                 1.0724
 Frc consts  --      6.0030                 6.0573                 6.1220
 IR Inten    --      9.7210                36.1290                38.0046

                    121                    122                    123
                      A                      A                      A
 Frequencies --   3117.1619              3119.5485              3125.6770
 Red. masses --      1.0876                 1.0914                 1.0458
 Frc consts  --      6.2263                 6.2578                 6.0199
 IR Inten    --     43.3322                 5.0990                 2.7784

                    124                    125                    126
                      A                      A                      A
 Frequencies --   3127.3962              3127.7167              3132.3940
 Red. masses --      1.0868                 1.0998                 1.0905
 Frc consts  --      6.2626                 6.3387                 6.3041
 IR Inten    --     20.6488                19.2227                32.1444

                    127                    128                    129
                      A                      A                      A
 Frequencies --   3149.9183              3166.4294              3174.8659
 Red. masses --      1.1064                 1.0943                 1.0962
 Frc consts  --      6.4678                 6.4647                 6.5102
 IR Inten    --     17.1986                 3.3346                 8.2083

                    130                    131                    132
                      A                      A                      A
 Frequencies --   3207.2014              3209.5066              3212.1592
 Red. masses --      1.1022                 1.0867                 1.1084
 Frc consts  --      6.6795                 6.5954                 6.7383
 IR Inten    --      2.6225                 3.6672                 1.9980

                    133                    134                    135
                      A                      A                      A
 Frequencies --   3219.8064              3231.2871              3243.6457
 Red. masses --      1.0903                 1.0960                 1.1048
 Frc consts  --      6.6598                 6.7425                 6.8488
 IR Inten    --     18.8012                26.8089                 4.4139

                    136                    137                    138
                      A                      A                      A
 Frequencies --   3252.0707              3395.8054              3596.7735
 Red. masses --      1.0937                 1.0772                 1.0781
 Frc consts  --      6.8152                 7.3189                 8.2171
 IR Inten    --      6.9328               116.6053                57.8371

 - Thermochemistry -
 -------------------
 Temperature   298.150 Kelvin.  Pressure   1.00000 Atm.
 Atom     1 has atomic number  6 and mass  12.00000

 Molecular mass:   313.20284 amu.
 Principal axes and moments of inertia in atomic units:
                           1         2         3
     Eigenvalues --  2893.98469********************
           X            0.99999   0.00500   0.00110
           Y           -0.00500   0.99999  -0.00196
           Z           -0.00111   0.00196   1.00000
 This molecule is an asymmetric top.
 Rotational symmetry number  1.
 Warning -- assumption of classical behavior for rotation
           may cause significant error
 Rotational temperatures (Kelvin)      0.02993     0.00622     0.00567
 Rotational constants (GHZ):           0.62362     0.12961     0.11815
 Zero-point vibrational energy    1116268.5 (Joules/Mol)
                                  266.79458 (Kcal/Mol)
 Warning -- explicit consideration of  33 degrees of freedom as
           vibrations may cause significant error
 Vibrational temperatures:     43.80    48.10    64.31   115.15   121.32
          (Kelvin)            148.65   183.08   202.36   207.99   248.74
                              290.79   348.41   351.94   358.59   379.90
                              433.17   450.35   465.85   531.16   535.64
                              558.05   600.60   610.63   632.58   642.77
                              666.35   780.00   786.03   801.92   833.23
                              846.71   875.25   891.16   922.56   939.42
                             1018.98  1081.58  1095.40  1105.77  1110.98
                             1121.94  1144.07  1145.61  1199.04  1211.43
                             1235.65  1261.60  1270.27  1297.66  1341.87
                             1379.20  1383.28  1388.49  1433.31  1440.01
                             1464.33  1478.11  1486.96  1516.84  1545.26
                             1553.17  1583.54  1598.78  1640.87  1646.61
                             1660.80  1663.90  1668.53  1675.14  1695.61
                             1719.17  1730.89  1740.88  1788.63  1824.20
                             1859.96  1876.06  1881.89  1885.95  1937.01
                             1941.41  1959.75  1973.52  1992.09  2009.27
                             2022.99  2024.61  2029.30  2032.06  2043.21
                             2050.67  2054.10  2077.07  2080.61  2101.54
                             2125.11  2131.66  2155.67  2159.31  2167.43
                             2171.69  2180.45  2190.67  2201.08  2206.21
                             2209.71  2224.33  2226.67  2254.55  2293.51
                             2347.37  2412.42  2497.25  4411.35  4412.07
                             4437.03  4438.40  4449.82  4457.32  4478.64
                             4484.90  4488.33  4497.15  4499.63  4500.09
                             4506.82  4532.03  4555.79  4567.92  4614.45
                             4617.76  4621.58  4632.58  4649.10  4666.88
                             4679.00  4885.81  5174.95

 Zero-point correction=                           0.425164 (Hartree/Particle)
 Thermal correction to Energy=                    0.445049
 Thermal correction to Enthalpy=                  0.445993
 Thermal correction to Gibbs Free Energy=         0.376547
 Sum of electronic and zero-point Energies=           -994.662427
 Sum of electronic and thermal Energies=              -994.642542
 Sum of electronic and thermal Enthalpies=            -994.641598
 Sum of electronic and thermal Free Energies=         -994.711044

                     E (Thermal)             CV                S
                      KCal/Mol        Cal/Mol-Kelvin    Cal/Mol-Kelvin
 Total                  279.272             80.139            146.161
 Electronic               0.000              0.000              0.000
 Translational            0.889              2.981             43.121
 Rotational               0.889              2.981             34.775
 Vibrational            277.495             74.178             68.265
 Vibration     1          0.594              1.984              5.800
 Vibration     2          0.594              1.983              5.615
 Vibration     3          0.595              1.980              5.039
 Vibration     4          0.600              1.963              3.890
 Vibration     5          0.601              1.960              3.788
 Vibration     6          0.605              1.947              3.391
 Vibration     7          0.611              1.926              2.987
 Vibration     8          0.615              1.913              2.795
 Vibration     9          0.616              1.909              2.743
 Vibration    10          0.626              1.876              2.404
 Vibration    11          0.639              1.837              2.114
 Vibration    12          0.658              1.776              1.787
 Vibration    13          0.660              1.772              1.769
 Vibration    14          0.662              1.764              1.736
 Vibration    15          0.671              1.739              1.635
 Vibration    16          0.693              1.672              1.411
 Vibration    17          0.701              1.649              1.346
 Vibration    18          0.708              1.628              1.291
 Vibration    19          0.741              1.536              1.083
 Vibration    20          0.744              1.529              1.070
 Vibration    21          0.756              1.496              1.008
 Vibration    22          0.780              1.432              0.901
 Vibration    23          0.786              1.417              0.877
 Vibration    24          0.800              1.384              0.828
 Vibration    25          0.806              1.368              0.806
 Vibration    26          0.821              1.332              0.757
 Vibration    27          0.897              1.157              0.561
 Vibration    28          0.902              1.148              0.552
 Vibration    29          0.913              1.124              0.529
 Vibration    30          0.936              1.076              0.487
 Vibration    31          0.946              1.056              0.470
 Vibration    32          0.967              1.014              0.436
 Vibration    33          0.979              0.991              0.417

                           ! Non-Optimized Parameters !
 Normal termination of Gaussian 16 at Mon Jul 12 18:06:42 2021.

 ----------------------------------------------------------------------
 #p b3lyp/6-31G(d) scrf=(iefpcm,read,solvent=n-octanol) geom=allcheck g
 uess=read
 ----------------------------------------------------------------------

 Structure from the checkpoint file:  "SET_328_BBB286_conf1.geo_000_090.chk"
 -----------------------------------------
 SET_328_BBB286_conf1.geo_000_090 geometry
 -----------------------------------------
 Charge =  1 Multiplicity = 1

 SCF Done:  E(RB3LYP) =  -995.091660225     A.U. after    2 cycles
 Normal termination of Gaussian 16 at Mon Jul 12 18:08:51 2021.

 -----------------------------
 #p B3LYP/6-31G* geom=allcheck
 -----------------------------

 Structure from the checkpoint file:  "SET_328_BBB286_conf1.geo_000_090.chk"
 -----------------------------------------
 SET_328_BBB286_conf1.geo_000_090 geometry
 -----------------------------------------
 Charge =  1 Multiplicity = 1

 SCF Done:  E(RB3LYP) =  -995.001873388     A.U. after   16 cycles
 Normal termination of Gaussian 16 at Mon Jul 12 18:13:42 2021.
 Gaussian 16:  ES64L-G16RevA.03 25-Dec-2016

 --------------------------------------------------------
 #p mp2/aug-cc-pVDZ scf=tight maxdisk=180GB geom=allcheck
 --------------------------------------------------------

 Structure from the checkpoint file:  "SET_328_BBB286_conf1.geo_000_090.chk"
 -----------------------------------------
 SET_328_BBB286_conf1.geo_000_090 geometry
 -----------------------------------------
 Charge =  1 Multiplicity = 1

                         Standard orientation:
 ---------------------------------------------------------------------
 Center     Atomic      Atomic             Coordinates (Angstroms)
 Number     Number       Type             X           Y           Z
 ---------------------------------------------------------------------
      1          6           0        3.418133    3.008363   -0.336788
      2          1           0        3.796014    3.351086    0.629872
      3          1           0        2.518978    3.564151   -0.594083
      4          1           0        4.180952    3.173191   -1.100975
      5          7           0        3.058290    1.605162   -0.274681
      6          6           0        3.879533    0.538257   -0.007817
      7          6           0        3.063468   -0.617858   -0.043543
      8          6           0        3.632671   -1.881872    0.194624
      9          6           0        4.989480   -1.945122    0.460200
     10          6           0        5.788876   -0.777412    0.493645
     11          6           0        5.255060    0.479125    0.262346
     12          1           0        5.871899    1.370486    0.290248
     13          1           0        6.848300   -0.870640    0.706635
     14          1           0        5.455660   -2.906389    0.647669
     15          1           0        3.012737   -2.768584    0.167624
     16          7           0        1.785304    1.215423   -0.473017
     17          6           0        1.761695   -0.109300   -0.341211
     18          6           0        0.504054   -0.869376   -0.489018
     19          8           0        0.461510   -2.096399   -0.360478
     20          7           0       -0.606067   -0.115552   -0.746908
     21          1           0       -0.440735    0.845642   -1.020130
     22          6           0       -1.884572   -0.748751   -1.057396
     23          6           0       -2.899033    0.269808   -1.615335
     24          1           0       -2.383316    1.042791   -2.192684
     25          1           0       -3.529581   -0.253889   -2.338251
     26          1           0       -1.691938   -1.484898   -1.844220
     27          6           0       -2.464671   -1.547391    0.137009
     28          1           0       -1.636961   -1.974135    0.703587
     29          1           0       -3.011072   -2.400893   -0.274254
     30          6           0       -3.400089   -0.804079    1.099096
     31          1           0       -3.940021   -1.551042    1.685474
     32          6           0       -2.782216    0.217986    2.063825
     33          1           0       -1.986433   -0.285103    2.619333
     34          1           0       -3.544496    0.487726    2.802865
     35          6           0       -2.243684    1.481837    1.383233
     36          1           0       -1.277415    1.260761    0.932743
     37          1           0       -2.069584    2.250140    2.139058
     38          6           0       -3.208024    2.035022    0.324368
     39          1           0       -2.708344    2.781341   -0.299116
     40          1           0       -4.035913    2.560363    0.811960
     41          6           0       -3.822944    0.972738   -0.602425
     42          1           0       -4.643107    1.429416   -1.159912
     43          7           0       -4.484588   -0.082875    0.291072
     44          6           0       -5.393965   -1.020323   -0.446461
     45          1           0       -4.825220   -1.583448   -1.180160
     46          1           0       -6.167592   -0.433944   -0.940185
     47          1           0       -5.839579   -1.697815    0.280148
     48          1           0       -5.078531    0.419859    0.965211
 ---------------------------------------------------------------------

 SCF Done:  E(RHF) =  -988.768004597     A.U. after   17 cycles
 E2 =    -0.3426469655D+01 EUMP2 =    -0.99219447425258D+03

 The electronic state is 1-A.
 Alpha  occ. eigenvalues --  -20.63033 -15.83954 -15.73420 -15.71294 -15.69488
 Alpha  occ. eigenvalues --  -11.46198 -11.44650 -11.44000 -11.43842 -11.40901
 Alpha  occ. eigenvalues --  -11.38594 -11.37933 -11.37320 -11.36633 -11.36293
 Alpha  occ. eigenvalues --  -11.36287 -11.36199 -11.35724 -11.32374 -11.32193
 Alpha  occ. eigenvalues --  -11.32140 -11.32081 -11.30969  -1.48696  -1.47401
 Alpha  occ. eigenvalues --   -1.47203  -1.34762  -1.24526  -1.23297  -1.22883
 Alpha  occ. eigenvalues --   -1.21828  -1.18980  -1.12241  -1.11610  -1.09811
 Alpha  occ. eigenvalues --   -1.07951  -1.06292  -1.03116  -0.99255  -0.97116
 Alpha  occ. eigenvalues --   -0.95136  -0.92915  -0.90343  -0.89559  -0.87344
 Alpha  occ. eigenvalues --   -0.84000  -0.83473  -0.81247  -0.80828  -0.79776
 Alpha  occ. eigenvalues --   -0.77736  -0.75659  -0.74739  -0.74609  -0.74113
 Alpha  occ. eigenvalues --   -0.73992  -0.73531  -0.72373  -0.71479  -0.71191
 Alpha  occ. eigenvalues --   -0.70374  -0.69998  -0.68432  -0.68195  -0.67680
 Alpha  occ. eigenvalues --   -0.66009  -0.65453  -0.64602  -0.64418  -0.64033
 Alpha  occ. eigenvalues --   -0.61906  -0.61702  -0.59940  -0.59792  -0.59234
 Alpha  occ. eigenvalues --   -0.58701  -0.57516  -0.56743  -0.55599  -0.52539
 Alpha  occ. eigenvalues --   -0.49864  -0.47600  -0.40271  -0.38025
 Alpha virt. eigenvalues --   -0.07709  -0.05725  -0.05458  -0.04841  -0.03530
 Alpha virt. eigenvalues --   -0.03425  -0.03269  -0.02959  -0.02384  -0.01661
 Alpha virt. eigenvalues --   -0.01460  -0.01113  -0.00766  -0.00452  -0.00311

 Mulliken charges:
               1
     1  C    0.860860
     2  H   -0.084351
     3  H   -0.262804
     4  H   -0.121151
     5  N   -0.741691
     6  C   -0.204548
     7  C    0.527633
     8  C    1.326463
     9  C    0.277784
    10  C    0.492793
    11  C    0.989502
    12  H   -0.570402
    13  H   -0.465531
    14  H   -0.484802
    15  H   -0.532656
    16  N   -0.968241
    17  C    0.357887
    18  C    0.210773
    19  O   -0.849521
    20  N    0.283497
    21  H   -0.096316
    22  C   -0.012330
    23  C    0.619063
    24  H   -0.303989
    25  H   -0.004708
    26  H   -0.485385
    27  C    0.535323
    28  H   -0.296135
    29  H   -0.011798
    30  C    0.623583
    31  H   -0.395812
    32  C    0.572863
    33  H   -0.142040
    34  H   -0.115296
    35  C    0.641616
    36  H   -0.210139
    37  H   -0.163659
    38  C    0.586767
    39  H   -0.166798
    40  H   -0.095274
    41  C    0.496154
    42  H   -0.383303
    43  N   -0.981706
    44  C    0.784892
    45  H   -0.086002
    46  H   -0.097888
    47  H   -0.075880
    48  H    0.222705
 Sum of Mulliken charges =   1.00000

 Dipole moment (field-independent basis, Debye):
    X=            -14.6520    Y=              3.7674    Z=              0.6111  Tot=             15.1410
 Quadrupole moment (field-independent basis, Debye-Ang):
   XX=            -21.0553   YY=           -122.4875   ZZ=           -129.9644
   XY=              9.9595   XZ=              0.4936   YZ=             -2.3827

 Normal termination of Gaussian 16 at Mon Jul 12 21:41:56 2021.
