 Gaussian 16, Revision A.03,

 ---------------------------------------------------------------
 #p b3lyp/6-31G(d) opt freq scrf=(iefpcm,read,solvent=n-octanol)
 ---------------------------------------------------------------

 -----------------------------------------
 SET_328_BBB282_conf1.geo_000_090 geometry
 -----------------------------------------
 Symbolic Z-matrix:
 Charge = -1 Multiplicity = 1

 SCF Done:  E(RB3LYP) =  -799.200314373     A.U. after   15 cycles
 SCF Done:  E(RB3LYP) =  -799.239106727     A.U. after   12 cycles
 SCF Done:  E(RB3LYP) =  -799.257486549     A.U. after   12 cycles
 SCF Done:  E(RB3LYP) =  -799.260132977     A.U. after   11 cycles
 SCF Done:  E(RB3LYP) =  -799.258273209     A.U. after   12 cycles
 SCF Done:  E(RB3LYP) =  -799.261533010     A.U. after   11 cycles
 SCF Done:  E(RB3LYP) =  -799.261716411     A.U. after   10 cycles
 SCF Done:  E(RB3LYP) =  -799.261722416     A.U. after   10 cycles
 SCF Done:  E(RB3LYP) =  -799.261763828     A.U. after    9 cycles
 SCF Done:  E(RB3LYP) =  -799.261769730     A.U. after    9 cycles
 SCF Done:  E(RB3LYP) =  -799.261770762     A.U. after    9 cycles
 SCF Done:  E(RB3LYP) =  -799.261771579     A.U. after    9 cycles
 SCF Done:  E(RB3LYP) =  -799.261772535     A.U. after    9 cycles
 SCF Done:  E(RB3LYP) =  -799.261772519     A.U. after    7 cycles
 SCF Done:  E(RB3LYP) =  -799.261772321     A.U. after    7 cycles
 SCF Done:  E(RB3LYP) =  -799.261772339     A.U. after    6 cycles
 Optimization completed.
    -- Stationary point found.
 Normal termination of Gaussian 16 at Mon Jul 12 13:27:25 2021.

 --------------------------------------------------------------------
 #P Geom=AllCheck Guess=TCheck SCRF=Check GenChk RB3LYP/6-31G(d) Freq
 --------------------------------------------------------------------

 Structure from the checkpoint file:  "SET_328_BBB282_conf1.geo_000_090.chk"
 -----------------------------------------
 SET_328_BBB282_conf1.geo_000_090 geometry
 -----------------------------------------
 Charge = -1 Multiplicity = 1

 SCF Done:  E(RB3LYP) =  -799.261772339     A.U. after    1 cycles

  Exact polarizability: 260.868  -3.228 217.707   2.400 -13.880  84.549
 Approx polarizability: 303.033 -20.295 306.026   5.780 -27.007 110.419

                      1                      2                      3
                      A                      A                      A
 Frequencies --     54.2078                55.6100                65.2971
 Red. masses --      6.7246                 1.1037                 2.6823
 Frc consts  --      0.0116                 0.0020                 0.0067
 IR Inten    --      0.2745                 0.0352                 1.3421

                      4                      5                      6
                      A                      A                      A
 Frequencies --     87.7157                97.5579               127.9805
 Red. masses --      3.8981                 4.2819                 9.1112
 Frc consts  --      0.0177                 0.0240                 0.0879
 IR Inten    --      5.6028                 0.2578                 0.6284

                      7                      8                      9
                      A                      A                      A
 Frequencies --    168.1143               203.9312               213.5511
 Red. masses --      6.8680                 4.0189                 1.5190
 Frc consts  --      0.1144                 0.0985                 0.0408
 IR Inten    --      3.3306                14.3308                 5.3094

                     10                     11                     12
                      A                      A                      A
 Frequencies --    247.1358               253.7265               295.5646
 Red. masses --      4.0308                 2.3582                 4.7512
 Frc consts  --      0.1450                 0.0894                 0.2445
 IR Inten    --      2.6036                 1.2487                 1.5917

                     13                     14                     15
                      A                      A                      A
 Frequencies --    300.7136               353.2538               373.4648
 Red. masses --      6.2797                 4.4268                 3.0539
 Frc consts  --      0.3346                 0.3255                 0.2510
 IR Inten    --      9.5294                 5.7398                 1.7609

                     16                     17                     18
                      A                      A                      A
 Frequencies --    388.7068               430.4984               442.7400
 Red. masses --      5.5890                 7.2079                 4.5150
 Frc consts  --      0.4975                 0.7871                 0.5214
 IR Inten    --     10.0031                 2.5406                 0.2084

                     19                     20                     21
                      A                      A                      A
 Frequencies --    485.8291               507.4623               541.4854
 Red. masses --      5.2981                 4.3732                 4.0136
 Frc consts  --      0.7368                 0.6635                 0.6934
 IR Inten    --     10.7747                 7.1995                13.6534

                     22                     23                     24
                      A                      A                      A
 Frequencies --    567.0440               644.4817               661.3043
 Red. masses --      5.6929                 4.2106                 4.7580
 Frc consts  --      1.0785                 1.0304                 1.2260
 IR Inten    --      1.1967                 1.9640                25.8002

                     25                     26                     27
                      A                      A                      A
 Frequencies --    715.2592               723.2642               747.5908
 Red. masses --      7.5198                 5.4444                 8.7366
 Frc consts  --      2.2667                 1.6780                 2.8769
 IR Inten    --      1.9726                 6.3889               150.4598

                     28                     29                     30
                      A                      A                      A
 Frequencies --    782.9117               788.7441               802.0757
 Red. masses --      7.7452                 4.2685                 1.3333
 Frc consts  --      2.7971                 1.5646                 0.5054
 IR Inten    --      1.1934                 0.2438                11.5314

                     31                     32                     33
                      A                      A                      A
 Frequencies --    816.1969               863.2146               885.5512
 Red. masses --      3.8780                 1.6124                 5.4820
 Frc consts  --      1.5221                 0.7079                 2.5329
 IR Inten    --     54.2955                 4.3076                32.7748

                     34                     35                     36
                      A                      A                      A
 Frequencies --    947.2353               976.9587              1000.7457
 Red. masses --      4.0742                 2.2412                 1.3348
 Frc consts  --      2.1538                 1.2603                 0.7876
 IR Inten    --      9.0699                 5.9563                 8.6217

                     37                     38                     39
                      A                      A                      A
 Frequencies --   1015.9028              1037.2923              1069.8935
 Red. masses --      1.3295                 1.8549                 1.5772
 Frc consts  --      0.8084                 1.1759                 1.0637
 IR Inten    --      0.1279                 0.0573                 8.0525

                     40                     41                     42
                      A                      A                      A
 Frequencies --   1073.9703              1112.8374              1121.1411
 Red. masses --      3.1685                 2.0989                 1.9204
 Frc consts  --      2.1532                 1.5314                 1.4222
 IR Inten    --      0.9804                 2.4337                13.9162

                     43                     44                     45
                      A                      A                      A
 Frequencies --   1160.4124              1165.2968              1251.7361
 Red. masses --      1.7475                 1.7646                 2.0128
 Frc consts  --      1.3864                 1.4118                 1.8581
 IR Inten    --     75.3155                25.9233                15.6526

                     46                     47                     48
                      A                      A                      A
 Frequencies --   1269.5718              1290.2014              1327.5045
 Red. masses --      3.3304                 1.8739                 3.3243
 Frc consts  --      3.1627                 1.8378                 3.4516
 IR Inten    --      6.2205               224.3090               133.8574

                     49                     50                     51
                      A                      A                      A
 Frequencies --   1355.6318              1374.0371              1388.9888
 Red. masses --      5.0022                 9.1647                 2.5331
 Frc consts  --      5.4162                10.1945                 2.8794
 IR Inten    --    105.8527               744.1915                30.7894

                     52                     53                     54
                      A                      A                      A
 Frequencies --   1397.2092              1416.1756              1427.9611
 Red. masses --      2.0227                 1.5022                 1.3182
 Frc consts  --      2.3266                 1.7751                 1.5837
 IR Inten    --     20.0809                21.3935                 3.5551

                     55                     56                     57
                      A                      A                      A
 Frequencies --   1434.4436              1475.3907              1501.2986
 Red. masses --      1.3216                 3.3688                 1.2957
 Frc consts  --      1.6022                 4.3205                 1.7207
 IR Inten    --     20.9366               419.8957                22.2541

                     58                     59                     60
                      A                      A                      A
 Frequencies --   1501.8733              1505.8445              1516.4243
 Red. masses --      1.0622                 1.1061                 1.0580
 Frc consts  --      1.4116                 1.4777                 1.4335
 IR Inten    --     11.1421                 6.1175                20.4653

                     61                     62                     63
                      A                      A                      A
 Frequencies --   1527.4514              1535.2299              1596.0213
 Red. masses --      1.8066                 1.3689                 5.2861
 Frc consts  --      2.4834                 1.9010                 7.9334
 IR Inten    --     75.7045                33.7002                41.4456

                     64                     65                     66
                      A                      A                      A
 Frequencies --   1641.0862              1647.8177              1673.0002
 Red. masses --      7.5502                 7.8400                10.2163
 Frc consts  --     11.9804                12.5426                16.8475
 IR Inten    --    224.1779                45.7647               146.4902

                     67                     68                     69
                      A                      A                      A
 Frequencies --   1716.0411              3069.3382              3078.8281
 Red. masses --     11.6432                 1.0369                 1.0355
 Frc consts  --     20.2013                 5.7554                 5.7831
 IR Inten    --   1279.1095                27.1906                27.4650

                     70                     71                     72
                      A                      A                      A
 Frequencies --   3112.9244              3127.6237              3145.8673
 Red. masses --      1.0611                 1.1010                 1.1032
 Frc consts  --      6.0582                 6.3454                 6.4326
 IR Inten    --     33.5273                16.9671                24.9869

                     73                     74                     75
                      A                      A                      A
 Frequencies --   3157.6515              3158.6672              3173.6568
 Red. masses --      1.1025                 1.1015                 1.1067
 Frc consts  --      6.4767                 6.4748                 6.5675
 IR Inten    --     25.6880                29.7572                28.9836

                     76                     77                     78
                      A                      A                      A
 Frequencies --   3213.5334              3228.1567              3247.4049
 Red. masses --      1.0883                 1.0945                 1.0900
 Frc consts  --      6.6217                 6.7202                 6.7723
 IR Inten    --      8.9827                19.3909                 4.6044

 - Thermochemistry -
 -------------------
 Temperature   298.150 Kelvin.  Pressure   1.00000 Atm.
 Atom     1 has atomic number  6 and mass  12.00000

 Molecular mass:   231.07697 amu.
 Principal axes and moments of inertia in atomic units:
                           1         2         3
     Eigenvalues --  2270.640085208.586407281.10539
           X            0.99999   0.00466  -0.00107
           Y           -0.00466   0.99995   0.00836
           Z            0.00111  -0.00836   0.99996
 This molecule is an asymmetric top.
 Rotational symmetry number  1.
 Warning -- assumption of classical behavior for rotation
           may cause significant error
 Rotational temperatures (Kelvin)      0.03815     0.01663     0.01190
 Rotational constants (GHZ):           0.79482     0.34649     0.24787
 Zero-point vibrational energy     567379.6 (Joules/Mol)
                                  135.60698 (Kcal/Mol)
 Warning -- explicit consideration of  22 degrees of freedom as
           vibrations may cause significant error
 Vibrational temperatures:     77.99    80.01    93.95   126.20   140.36
          (Kelvin)            184.14   241.88   293.41   307.25   355.57
                              365.06   425.25   432.66   508.25   537.33
                              559.26   619.39   637.00   699.00   730.13
                              779.08   815.85   927.27   951.47  1029.10
                             1040.62  1075.62  1126.44  1134.83  1154.01
                             1174.33  1241.97  1274.11  1362.86  1405.63
                             1439.85  1461.66  1492.43  1539.34  1545.20
                             1601.12  1613.07  1669.57  1676.60  1800.97
                             1826.63  1856.31  1909.98  1950.45  1976.93
                             1998.45  2010.27  2037.56  2054.52  2063.84
                             2122.76  2160.03  2160.86  2166.57  2181.80
                             2197.66  2208.85  2296.32  2361.16  2370.84
                             2407.07  2469.00  4416.09  4429.75  4478.80
                             4499.95  4526.20  4543.16  4544.62  4566.18
                             4623.56  4644.60  4672.29

 Zero-point correction=                           0.216103 (Hartree/Particle)
 Thermal correction to Energy=                    0.230969
 Thermal correction to Enthalpy=                  0.231913
 Thermal correction to Gibbs Free Energy=         0.173542
 Sum of electronic and zero-point Energies=           -799.045669
 Sum of electronic and thermal Energies=              -799.030803
 Sum of electronic and thermal Enthalpies=            -799.029859
 Sum of electronic and thermal Free Energies=         -799.088230

                     E (Thermal)             CV                S
                      KCal/Mol        Cal/Mol-Kelvin    Cal/Mol-Kelvin
 Total                  144.935             55.759            122.852
 Electronic               0.000              0.000              0.000
 Translational            0.889              2.981             42.215
 Rotational               0.889              2.981             32.821
 Vibrational            143.158             49.798             47.817
 Vibration     1          0.596              1.976              4.658
 Vibration     2          0.596              1.975              4.607
 Vibration     3          0.597              1.971              4.290
 Vibration     4          0.601              1.958              3.710
 Vibration     5          0.603              1.951              3.503
 Vibration     6          0.611              1.925              2.976
 Vibration     7          0.625              1.882              2.456
 Vibration     8          0.640              1.834              2.097
 Vibration     9          0.644              1.820              2.013
 Vibration    10          0.661              1.768              1.751
 Vibration    11          0.665              1.756              1.705
 Vibration    12          0.690              1.682              1.442
 Vibration    13          0.693              1.672              1.413
 Vibration    14          0.729              1.569              1.152
 Vibration    15          0.745              1.527              1.066
 Vibration    16          0.757              1.494              1.005
 Vibration    17          0.792              1.404              0.857
 Vibration    18          0.802              1.377              0.818
 Vibration    19          0.842              1.281              0.695
 Vibration    20          0.863              1.233              0.640
 Vibration    21          0.897              1.158              0.562
 Vibration    22          0.923              1.103              0.510

 Optimization completed.
    -- Stationary point found.
 Normal termination of Gaussian 16 at Mon Jul 12 13:53:21 2021.

 ----------------------------------------------------------------------
 #p b3lyp/6-31G(d) scrf=(iefpcm,read,solvent=n-octanol) geom=allcheck g
 uess=read
 ----------------------------------------------------------------------

 Structure from the checkpoint file:  "SET_328_BBB282_conf1.geo_000_090.chk"
 -----------------------------------------
 SET_328_BBB282_conf1.geo_000_090 geometry
 -----------------------------------------
 Charge = -1 Multiplicity = 1

 SCF Done:  E(RB3LYP) =  -799.261772339     A.U. after    1 cycles
 Normal termination of Gaussian 16 at Mon Jul 12 13:54:01 2021.

 -----------------------------
 #p B3LYP/6-31G* geom=allcheck
 -----------------------------

 Structure from the checkpoint file:  "SET_328_BBB282_conf1.geo_000_090.chk"
 -----------------------------------------
 SET_328_BBB282_conf1.geo_000_090 geometry
 -----------------------------------------
 Charge = -1 Multiplicity = 1

 SCF Done:  E(RB3LYP) =  -799.145983892     A.U. after   18 cycles
 Normal termination of Gaussian 16 at Mon Jul 12 13:56:20 2021.
 Gaussian 16:  ES64L-G16RevA.03 25-Dec-2016

 --------------------------------------------------------
 #p mp2/aug-cc-pVDZ scf=tight maxdisk=180GB geom=allcheck
 --------------------------------------------------------

 Structure from the checkpoint file:  "SET_328_BBB282_conf1.geo_000_090.chk"
 -----------------------------------------
 SET_328_BBB282_conf1.geo_000_090 geometry
 -----------------------------------------
 Charge = -1 Multiplicity = 1

                         Standard orientation:
 ---------------------------------------------------------------------
 Center     Atomic      Atomic             Coordinates (Angstroms)
 Number     Number       Type             X           Y           Z
 ---------------------------------------------------------------------
      1          6           0       -0.955308    3.267130    0.927506
      2          1           0       -0.084115    3.313123    1.586660
      3          1           0       -1.742195    2.696678    1.425028
      4          1           0       -1.316965    4.286307    0.768322
      5          6           0       -0.596915    2.632794   -0.413805
      6          1           0        0.174945    3.213339   -0.920976
      7          1           0       -1.473648    2.583078   -1.059905
      8          7           0       -0.064411    1.267021   -0.278976
      9          6           0        1.282346    1.063186   -0.234311
     10          1           0        1.894494    1.948651   -0.350867
     11          6           0        1.923727   -0.134009   -0.066907
     12          6           0        3.456800   -0.064668   -0.040043
     13          8           0        4.094916   -1.109339    0.241627
     14          8           0        3.957534    1.070679   -0.297373
     15          6           0        1.116818   -1.344169    0.072154
     16          8           0        1.529950   -2.503022    0.216690
     17          6           0       -0.350656   -1.100476    0.016022
     18          6           0       -1.249825   -2.165303    0.131686
     19          1           0       -0.832770   -3.158832    0.258540
     20          6           0       -2.614039   -1.931284    0.083104
     21          1           0       -3.328270   -2.742750    0.171556
     22          6           0       -3.071514   -0.612203   -0.082275
     23          6           0       -4.542751   -0.296345   -0.141054
     24          1           0       -4.794305    0.185152   -1.091219
     25          1           0       -4.817012    0.402395    0.655261
     26          1           0       -5.148082   -1.198991   -0.036916
     27          7           0       -2.234152    0.423245   -0.194143
     28          6           0       -0.915572    0.180921   -0.148944
 ---------------------------------------------------------------------

 SCF Done:  E(RHF) =  -794.469361136     A.U. after   18 cycles
 E2 =    -0.2576752618D+01 EUMP2 =    -0.79704611375390D+03

 The electronic state is 1-A.
 Alpha  occ. eigenvalues --  -20.39368 -20.31068 -20.30765 -15.51940 -15.48148
 Alpha  occ. eigenvalues --  -11.23834 -11.21598 -11.20412 -11.19202 -11.17789
 Alpha  occ. eigenvalues --  -11.17397 -11.16701 -11.16335 -11.15162 -11.14874
 Alpha  occ. eigenvalues --  -11.14140 -11.09627  -1.23462  -1.21955  -1.17976
 Alpha  occ. eigenvalues --   -1.15612  -1.07508  -1.00956  -0.98214  -0.96168
 Alpha  occ. eigenvalues --   -0.91088  -0.88483  -0.79897  -0.77989  -0.75927
 Alpha  occ. eigenvalues --   -0.70822  -0.64761  -0.61603  -0.61253  -0.56281
 Alpha  occ. eigenvalues --   -0.55036  -0.53770  -0.52304  -0.51711  -0.51131
 Alpha  occ. eigenvalues --   -0.50230  -0.48369  -0.47039  -0.46377  -0.45561
 Alpha  occ. eigenvalues --   -0.44657  -0.43923  -0.42536  -0.41728  -0.40389
 Alpha  occ. eigenvalues --   -0.39603  -0.37879  -0.35938  -0.33969  -0.29144
 Alpha  occ. eigenvalues --   -0.28476  -0.23996  -0.22248  -0.20956  -0.19783
 Alpha  occ. eigenvalues --   -0.18767
 Alpha virt. eigenvalues --    0.08696   0.09693   0.10642   0.11115   0.12063
 Alpha virt. eigenvalues --    0.12618   0.13381   0.14112   0.15198   0.15565
 Alpha virt. eigenvalues --    0.16657   0.16905   0.17390   0.18293   0.18839

 Mulliken charges:
               1
     1  C    0.550647
     2  H   -0.091254
     3  H   -0.069826
     4  H   -0.096506
     5  C    0.601725
     6  H   -0.272239
     7  H   -0.183794
     8  N   -0.333079
     9  C    0.677099
    10  H   -0.745498
    11  C    0.380930
    12  C    0.852538
    13  O   -0.978100
    14  O   -1.031401
    15  C    0.161577
    16  O   -0.973497
    17  C    1.598915
    18  C   -0.362445
    19  H   -0.682190
    20  C    0.671677
    21  H   -0.586332
    22  C   -0.211845
    23  C    0.677476
    24  H    0.087941
    25  H    0.084274
    26  H   -0.129732
    27  N   -0.710164
    28  C    0.113108
 Sum of Mulliken charges =  -1.00000

 Dipole moment (field-independent basis, Debye):
    X=            -19.4483    Y=              4.3723    Z=             -0.3562  Tot=             19.9369
 Quadrupole moment (field-independent basis, Debye-Ang):
   XX=           -183.0284   YY=           -113.3611   ZZ=           -103.7757
   XY=             11.5839   XZ=             -0.7758   YZ=              1.7393

 Normal termination of Gaussian 16 at Mon Jul 12 14:37:27 2021.
