 Gaussian 16, Revision A.03,

 ---------------------------------------------------------------
 #p b3lyp/6-31G(d) opt freq scrf=(iefpcm,read,solvent=n-octanol)
 ---------------------------------------------------------------

 -----------------------------------------
 SET_328_BBB285_conf1.geo_300_300 geometry
 -----------------------------------------
 Symbolic Z-matrix:
 Charge = -1 Multiplicity = 1

 SCF Done:  E(RB3LYP) =  -906.601413153     A.U. after   15 cycles
 SCF Done:  E(RB3LYP) =  -906.637054309     A.U. after   12 cycles
 SCF Done:  E(RB3LYP) =  -906.636296137     A.U. after   12 cycles
 SCF Done:  E(RB3LYP) =  -906.651907247     A.U. after   12 cycles
 SCF Done:  E(RB3LYP) =  -906.653374922     A.U. after   11 cycles
 SCF Done:  E(RB3LYP) =  -906.653103948     A.U. after   12 cycles
 SCF Done:  E(RB3LYP) =  -906.654308845     A.U. after   11 cycles
 SCF Done:  E(RB3LYP) =  -906.654295071     A.U. after   11 cycles
 SCF Done:  E(RB3LYP) =  -906.654303255     A.U. after   11 cycles
 SCF Done:  E(RB3LYP) =  -906.654451878     A.U. after   11 cycles
 SCF Done:  E(RB3LYP) =  -906.654688845     A.U. after    8 cycles
 SCF Done:  E(RB3LYP) =  -906.654686369     A.U. after    8 cycles
 SCF Done:  E(RB3LYP) =  -906.654687106     A.U. after    7 cycles
 SCF Done:  E(RB3LYP) =  -906.654686664     A.U. after    8 cycles
 SCF Done:  E(RB3LYP) =  -906.654686644     A.U. after    7 cycles
 SCF Done:  E(RB3LYP) =  -906.654686663     A.U. after    7 cycles
 Optimization completed.
    -- Stationary point found.
 Normal termination of Gaussian 16 at Mon Jul 12 13:38:54 2021.

 --------------------------------------------------------------------
 #P Geom=AllCheck Guess=TCheck SCRF=Check GenChk RB3LYP/6-31G(d) Freq
 --------------------------------------------------------------------

 Structure from the checkpoint file:  "SET_328_BBB285_conf1.geo_300_300.chk"
 -----------------------------------------
 SET_328_BBB285_conf1.geo_300_300 geometry
 -----------------------------------------
 Charge = -1 Multiplicity = 1

 SCF Done:  E(RB3LYP) =  -906.654686664     A.U. after    1 cycles

  Exact polarizability: 183.669   5.658 154.325   1.762  -1.346 100.153
 Approx polarizability: 217.339  12.220 205.220   6.891  -0.919 124.767

                      1                      2                      3
                      A                      A                      A
 Frequencies --     33.7277                46.0118                60.3765
 Red. masses --      5.8497                 7.1448                 6.5447
 Frc consts  --      0.0039                 0.0089                 0.0141
 IR Inten    --      1.7994                11.0205                 7.0194

                      4                      5                      6
                      A                      A                      A
 Frequencies --     90.3791                97.4919               131.2661
 Red. masses --      6.4440                 5.5939                 4.9965
 Frc consts  --      0.0310                 0.0313                 0.0507
 IR Inten    --      1.7861                11.8967                15.7141

                      7                      8                      9
                      A                      A                      A
 Frequencies --    146.3645               193.5668               207.0182
 Red. masses --      5.0625                 5.3600                 3.1463
 Frc consts  --      0.0639                 0.1183                 0.0794
 IR Inten    --     10.8005                 4.7335                51.7127

                     10                     11                     12
                      A                      A                      A
 Frequencies --    215.6610               257.5689               293.6623
 Red. masses --      1.9487                 5.1721                 3.0477
 Frc consts  --      0.0534                 0.2022                 0.1549
 IR Inten    --    128.9952                 4.3035                33.6711

                     13                     14                     15
                      A                      A                      A
 Frequencies --    297.0735               320.2007               337.7811
 Red. masses --      3.0698                 6.9417                 6.6243
 Frc consts  --      0.1596                 0.4193                 0.4453
 IR Inten    --     47.2338                 5.4456                11.2586

                     16                     17                     18
                      A                      A                      A
 Frequencies --    365.3594               410.6019               431.9340
 Red. masses --      3.0694                 2.0293                 4.1641
 Frc consts  --      0.2414                 0.2016                 0.4577
 IR Inten    --     34.0641               184.5053                58.4108

                     19                     20                     21
                      A                      A                      A
 Frequencies --    489.7207               530.3275               568.8075
 Red. masses --      3.8890                 6.3272                 6.0516
 Frc consts  --      0.5495                 1.0485                 1.1536
 IR Inten    --     24.3188                 7.7712                 7.6267

                     22                     23                     24
                      A                      A                      A
 Frequencies --    628.3953               647.4785               680.7033
 Red. masses --      4.0860                 5.2186                 9.4881
 Frc consts  --      0.9506                 1.2890                 2.5903
 IR Inten    --     33.9717                15.0970                 2.8419

                     25                     26                     27
                      A                      A                      A
 Frequencies --    720.7499               735.0026               750.0540
 Red. masses --      1.1428                 1.3790                 6.7583
 Frc consts  --      0.3498                 0.4389                 2.2401
 IR Inten    --    120.6152                57.8285                44.0874

                     28                     29                     30
                      A                      A                      A
 Frequencies --    758.6974               770.7986               779.1869
 Red. masses --      4.7679                 4.3607                 4.2660
 Frc consts  --      1.6170                 1.5265                 1.5260
 IR Inten    --     18.1410                16.9883                 1.0259

                     31                     32                     33
                      A                      A                      A
 Frequencies --    829.9962               858.3157               888.8424
 Red. masses --      3.9224                 3.1985                 1.4266
 Frc consts  --      1.5921                 1.3883                 0.6641
 IR Inten    --    156.0595                76.3357                11.5296

                     34                     35                     36
                      A                      A                      A
 Frequencies --    890.6562               925.7973              1000.4733
 Red. masses --      2.8800                 3.7346                 2.3115
 Frc consts  --      1.3461                 1.8859                 1.3632
 IR Inten    --      9.3690                73.0470                40.4504

                     37                     38                     39
                      A                      A                      A
 Frequencies --   1008.7082              1017.5157              1044.1198
 Red. masses --      5.6464                 3.1648                 4.4420
 Frc consts  --      3.3850                 1.9306                 2.8532
 IR Inten    --     37.0187                50.3583                50.3717

                     40                     41                     42
                      A                      A                      A
 Frequencies --   1050.8251              1070.6452              1109.6478
 Red. masses --      2.4445                 4.5827                 3.2466
 Frc consts  --      1.5904                 3.0950                 2.3553
 IR Inten    --     46.8782               133.4936               208.7598

                     43                     44                     45
                      A                      A                      A
 Frequencies --   1125.7575              1153.4520              1157.7524
 Red. masses --      2.5540                 3.0300                 2.3308
 Frc consts  --      1.9070                 2.3752                 1.8407
 IR Inten    --     84.1541                53.7466                58.4548

                     46                     47                     48
                      A                      A                      A
 Frequencies --   1208.4929              1217.5292              1230.5742
 Red. masses --      1.6915                 1.1902                 1.7906
 Frc consts  --      1.4555                 1.0395                 1.5976
 IR Inten    --     84.7882                36.0293                66.9004

                     49                     50                     51
                      A                      A                      A
 Frequencies --   1244.3344              1269.1602              1309.8257
 Red. masses --      1.1561                 1.6555                 1.5592
 Frc consts  --      1.0546                 1.5711                 1.5761
 IR Inten    --     34.9800                25.5331                 4.0036

                     52                     53                     54
                      A                      A                      A
 Frequencies --   1316.5520              1333.8869              1364.7472
 Red. masses --      6.8005                 1.3760                 4.2612
 Frc consts  --      6.9449                 1.4425                 4.6762
 IR Inten    --     75.3085                18.2194               339.1438

                     55                     56                     57
                      A                      A                      A
 Frequencies --   1372.3375              1373.5489              1395.0344
 Red. masses --      1.5422                 1.5066                 1.3457
 Frc consts  --      1.7113                 1.6746                 1.5431
 IR Inten    --     11.4479                 9.0143                 1.5281

                     58                     59                     60
                      A                      A                      A
 Frequencies --   1403.1665              1419.5368              1420.1966
 Red. masses --      1.3576                 1.9703                 2.5387
 Frc consts  --      1.5749                 2.3392                 3.0169
 IR Inten    --     49.3467                24.2506                82.9539

                     61                     62                     63
                      A                      A                      A
 Frequencies --   1424.9164              1446.9504              1455.2474
 Red. masses --      1.4430                 1.4902                 4.7279
 Frc consts  --      1.7262                 1.8382                 5.8992
 IR Inten    --     15.4387                21.6095               106.6241

                     64                     65                     66
                      A                      A                      A
 Frequencies --   1497.6848              1511.4762              1539.6850
 Red. masses --      1.0956                 1.1782                 5.9334
 Frc consts  --      1.4479                 1.5858                 8.2873
 IR Inten    --     17.5837               105.9569                16.9185

                     67                     68                     69
                      A                      A                      A
 Frequencies --   1686.8308              3062.8809              3083.8763
 Red. masses --      8.1862                 1.0707                 1.0852
 Frc consts  --     13.7238                 5.9180                 6.0805
 IR Inten    --    501.0559                43.4352                62.2443

                     70                     71                     72
                      A                      A                      A
 Frequencies --   3101.4301              3127.8582              3161.6180
 Red. masses --      1.0855                 1.0878                 1.0878
 Frc consts  --      6.1520                 6.2705                 6.4063
 IR Inten    --     35.5107                44.4339                13.9418

                     73                     74                     75
                      A                      A                      A
 Frequencies --   3169.2886              3317.7875              3441.7307
 Red. masses --      1.0967                 1.0969                 1.0725
 Frc consts  --      6.4902                 7.1138                 7.4850
 IR Inten    --     13.7850                 1.8921                 9.3811

                     76                     77                     78
                      A                      A                      A
 Frequencies --   3492.8396              3725.2785              3741.8824
 Red. masses --      1.0669                 1.0655                 1.0663
 Frc consts  --      7.6685                 8.7121                 8.7967
 IR Inten    --    454.4620                60.3429                66.6967

 - Thermochemistry -
 -------------------
 Temperature   298.150 Kelvin.  Pressure   1.00000 Atm.
 Atom     1 has atomic number  7 and mass  14.00307

 Molecular mass:   243.07294 amu.
 Principal axes and moments of inertia in atomic units:
                           1         2         3
     Eigenvalues --  1724.845797031.874437608.90512
           X            0.99997   0.00478  -0.00556
           Y           -0.00478   0.99999   0.00072
           Z            0.00556  -0.00070   0.99998
 This molecule is an asymmetric top.
 Rotational symmetry number  1.
 Warning -- assumption of classical behavior for rotation
           may cause significant error
 Rotational temperatures (Kelvin)      0.05022     0.01232     0.01138
 Rotational constants (GHZ):           1.04632     0.25665     0.23719
 Zero-point vibrational energy     562224.9 (Joules/Mol)
                                  134.37497 (Kcal/Mol)
 Warning -- explicit consideration of  21 degrees of freedom as
           vibrations may cause significant error
 Vibrational temperatures:     48.53    66.20    86.87   130.04   140.27
          (Kelvin)            188.86   210.59   278.50   297.85   310.29
                              370.58   422.51   427.42   460.70   485.99
                              525.67   590.76   621.46   704.60   763.02
                              818.39   904.12   931.58   979.38  1037.00
                             1057.50  1079.16  1091.60  1109.01  1121.08
                             1194.18  1234.92  1278.85  1281.46  1332.02
                             1439.46  1451.31  1463.98  1502.26  1511.90
                             1540.42  1596.54  1619.71  1659.56  1665.75
                             1738.75  1751.75  1770.52  1790.32  1826.04
                             1884.55  1894.22  1919.17  1963.57  1974.49
                             1976.23  2007.14  2018.84  2042.40  2043.35
                             2050.14  2081.84  2093.78  2154.83  2174.68
                             2215.26  2426.97  4406.80  4437.01  4462.27
                             4500.29  4548.86  4559.90  4773.56  4951.88
                             5025.42  5359.84  5383.73

 Zero-point correction=                           0.214140 (Hartree/Particle)
 Thermal correction to Energy=                    0.229342
 Thermal correction to Enthalpy=                  0.230286
 Thermal correction to Gibbs Free Energy=         0.170587
 Sum of electronic and zero-point Energies=           -906.440547
 Sum of electronic and thermal Energies=              -906.425345
 Sum of electronic and thermal Enthalpies=            -906.424401
 Sum of electronic and thermal Free Energies=         -906.484099

                     E (Thermal)             CV                S
                      KCal/Mol        Cal/Mol-Kelvin    Cal/Mol-Kelvin
 Total                  143.914             56.940            125.645
 Electronic               0.000              0.000              0.000
 Translational            0.889              2.981             42.366
 Rotational               0.889              2.981             32.890
 Vibrational            142.137             50.978             50.390
 Vibration     1          0.594              1.983              5.597
 Vibration     2          0.595              1.979              4.982
 Vibration     3          0.597              1.973              4.445
 Vibration     4          0.602              1.956              3.652
 Vibration     5          0.603              1.951              3.504
 Vibration     6          0.612              1.922              2.927
 Vibration     7          0.617              1.907              2.719
 Vibration     8          0.635              1.849              2.193
 Vibration     9          0.641              1.830              2.070
 Vibration    10          0.645              1.817              1.995
 Vibration    11          0.667              1.750              1.678
 Vibration    12          0.688              1.686              1.453
 Vibration    13          0.691              1.679              1.433
 Vibration    14          0.706              1.635              1.309
 Vibration    15          0.718              1.600              1.223
 Vibration    16          0.739              1.544              1.099
 Vibration    17          0.775              1.447              0.924
 Vibration    18          0.793              1.401              0.852
 Vibration    19          0.846              1.273              0.684
 Vibration    20          0.885              1.183              0.586
 Vibration    21          0.925              1.099              0.507

                           ! Non-Optimized Parameters !
 Normal termination of Gaussian 16 at Mon Jul 12 14:04:40 2021.

 ----------------------------------------------------------------------
 #p b3lyp/6-31G(d) scrf=(iefpcm,read,solvent=n-octanol) geom=allcheck g
 uess=read
 ----------------------------------------------------------------------

 Structure from the checkpoint file:  "SET_328_BBB285_conf1.geo_300_300.chk"
 -----------------------------------------
 SET_328_BBB285_conf1.geo_300_300 geometry
 -----------------------------------------
 Charge = -1 Multiplicity = 1

 SCF Done:  E(RB3LYP) =  -906.654686663     A.U. after    1 cycles
 Normal termination of Gaussian 16 at Mon Jul 12 14:05:11 2021.

 -----------------------------
 #p B3LYP/6-31G* geom=allcheck
 -----------------------------

 Structure from the checkpoint file:  "SET_328_BBB285_conf1.geo_300_300.chk"
 -----------------------------------------
 SET_328_BBB285_conf1.geo_300_300 geometry
 -----------------------------------------
 Charge = -1 Multiplicity = 1

 SCF Done:  E(RB3LYP) =  -906.545939425     A.U. after   17 cycles
 Normal termination of Gaussian 16 at Mon Jul 12 14:07:18 2021.
 Gaussian 16:  ES64L-G16RevA.03 25-Dec-2016

 --------------------------------------------------------
 #p mp2/aug-cc-pVDZ scf=tight maxdisk=180GB geom=allcheck
 --------------------------------------------------------

 Structure from the checkpoint file:  "SET_328_BBB285_conf1.geo_300_300.chk"
 -----------------------------------------
 SET_328_BBB285_conf1.geo_300_300 geometry
 -----------------------------------------
 Charge = -1 Multiplicity = 1

                         Standard orientation:
 ---------------------------------------------------------------------
 Center     Atomic      Atomic             Coordinates (Angstroms)
 Number     Number       Type             X           Y           Z
 ---------------------------------------------------------------------
      1          7           0       -3.627775    2.122146   -0.125823
      2          1           0       -2.618108    2.236670   -0.018356
      3          6           0       -3.877595    0.822848   -0.149177
      4          8           0       -5.004361    0.266405   -0.268882
      5          6           0       -2.718081   -0.147649   -0.024063
      6          6           0       -2.784054   -1.556884   -0.017584
      7          7           0       -1.559035   -2.064246    0.108832
      8          1           0       -3.654160   -2.188432   -0.094094
      9          7           0       -1.430500    0.193749    0.102832
     10          7           0       -0.782140   -0.974794    0.185701
     11          6           0        0.668796   -1.076927    0.252791
     12          1           0        0.870568   -2.107395    0.540465
     13          8           0        1.265194   -0.832150   -1.015021
     14          6           0        1.823766    0.497988   -1.080221
     15          6           0        3.305667    0.363926   -1.426491
     16          8           0        3.974093   -0.567489   -0.571772
     17          1           0        3.596995   -1.439761   -0.777976
     18          1           0        3.800462    1.325531   -1.294512
     19          1           0        3.410157    0.049835   -2.470979
     20          1           0        1.321203    1.048025   -1.883233
     21          6           0        1.531513    1.149704    0.292295
     22          8           0        2.606022    1.991172    0.661853
     23          1           0        2.390808    2.386258    1.522540
     24          1           0        0.588361    1.699786    0.223226
     25          6           0        1.306016   -0.062734    1.226840
     26          1           0        0.627328    0.166400    2.050731
     27          8           0        2.500054   -0.555108    1.788284
     28          1           0        3.198353   -0.479177    1.099362
 ---------------------------------------------------------------------

 SCF Done:  E(RHF) =  -901.542614550     A.U. after   16 cycles
 E2 =    -0.2822038597D+01 EUMP2 =    -0.90436465314710D+03

 The electronic state is 1-A.
 Alpha  occ. eigenvalues --  -20.51758 -20.50854 -20.50350 -20.48283 -20.31835
 Alpha  occ. eigenvalues --  -15.56516 -15.50860 -15.49982 -15.33419 -11.25218
 Alpha  occ. eigenvalues --  -11.22124 -11.21954 -11.21543 -11.21358 -11.15366
 Alpha  occ. eigenvalues --  -11.14563 -11.14009  -1.34827  -1.32284  -1.30451
 Alpha  occ. eigenvalues --   -1.29611  -1.27656  -1.15439  -1.07459  -1.02836
 Alpha  occ. eigenvalues --   -0.97093  -0.95643  -0.92074  -0.84476  -0.77135
 Alpha  occ. eigenvalues --   -0.73125  -0.72390  -0.69198  -0.65113  -0.64420
 Alpha  occ. eigenvalues --   -0.62848  -0.61086  -0.59014  -0.57344  -0.56427
 Alpha  occ. eigenvalues --   -0.55843  -0.53620  -0.52396  -0.51200  -0.49410
 Alpha  occ. eigenvalues --   -0.49130  -0.48276  -0.47369  -0.44792  -0.43113
 Alpha  occ. eigenvalues --   -0.42038  -0.39854  -0.39740  -0.38667  -0.37729
 Alpha  occ. eigenvalues --   -0.37025  -0.35828  -0.35332  -0.34096  -0.28118
 Alpha  occ. eigenvalues --   -0.24805  -0.23571  -0.21618  -0.15800
 Alpha virt. eigenvalues --    0.09697   0.10510   0.11016   0.12270   0.12781
 Alpha virt. eigenvalues --    0.13551   0.13727   0.14333   0.14704   0.16522
 Alpha virt. eigenvalues --    0.17661   0.18912   0.19148   0.19997   0.20449

 Mulliken charges:
               1
     1  N   -0.662756
     2  H   -0.033962
     3  C    0.894466
     4  O   -1.001959
     5  C    0.770919
     6  C    0.584341
     7  N   -0.445614
     8  H   -0.313348
     9  N   -0.911713
    10  N   -0.506161
    11  C    1.620594
    12  H   -0.364670
    13  O   -1.217789
    14  C    0.415956
    15  C    1.277511
    16  O   -0.817226
    17  H    0.216786
    18  H   -0.129607
    19  H   -0.104731
    20  H   -0.323159
    21  C    1.010359
    22  O   -0.882299
    23  H    0.123909
    24  H   -0.098248
    25  C    0.726743
    26  H   -0.228221
    27  O   -0.859126
    28  H    0.259009
 Sum of Mulliken charges =  -1.00000

 Dipole moment (field-independent basis, Debye):
    X=             17.4528    Y=             -3.3939    Z=             -0.0259  Tot=             17.7798
 Quadrupole moment (field-independent basis, Debye-Ang):
   XX=           -207.5560   YY=           -116.5946   ZZ=           -103.1751
   XY=             24.0185   XZ=            -10.9142   YZ=              4.1885

 Normal termination of Gaussian 16 at Mon Jul 12 14:46:40 2021.
